 Gaussian 09, Revision D.01,
 Gaussian 09:  EM64L-G09RevD.01 24-Apr-2013

 --------------------------
 #P PBE1PBE/GEN pop=nboread
 --------------------------

 ---
 c2h
 ---
 Symbolic Z-matrix:
 Charge =  0 Multiplicity = 1

                         Standard orientation:
 ---------------------------------------------------------------------
 Center     Atomic      Atomic             Coordinates (Angstroms)
 Number     Number       Type             X           Y           Z
 ---------------------------------------------------------------------
      1          6           0        0.621347    1.879258   -0.323921
      2          1           0        0.824703    2.177418    0.711612
      3          1           0        1.254990    2.480939   -0.990134
      4          6           0       -0.824080    2.154562   -0.648180
      5          1           0       -0.957650    3.239829   -0.678920
      6          1           0       -1.083686    1.756302   -1.633071
      7          8           0        0.881373    0.508308   -0.500717
      8          8           0       -1.706613    1.682939    0.344468
      9          6           0        2.106564    0.035648   -0.167289
     10          6           0        3.164726    0.834197    0.251215
     11          6           0        2.274731   -1.343443   -0.270913
     12          6           0        4.384261    0.243383    0.560957
     13          6           0        3.493214   -1.914478    0.039480
     14          6           0        4.558509   -1.124976    0.458205
     15          1           0        3.054057    1.906701    0.337741
     16          1           0        1.432793   -1.945681   -0.590559
     17          1           0        5.205127    0.872105    0.886886
     18          1           0        3.612894   -2.988760   -0.042658
     19          1           0        5.512439   -1.576052    0.702330
     20          6           0       -2.390979    0.522325    0.166749
     21          6           0       -3.458093    0.321407    1.038714
     22          6           0       -2.090473   -0.440425   -0.789886
     23          6           0       -4.220293   -0.828304    0.949549
     24          6           0       -2.871689   -1.585658   -0.872896
     25          6           0       -3.936522   -1.789787   -0.011899
     26          1           0       -3.672372    1.083914    1.777897
     27          1           0       -1.235785   -0.326084   -1.440980
     28          1           0       -5.048163   -0.971515    1.634728
     29          1           0       -2.628758   -2.332272   -1.620776
     30          1           0       -4.536017   -2.689070   -0.083406
 ---------------------------------------------------------------------

 SCF Done:  E(RPBE1PBE) =  -691.794022895     A.U. after   17 cycles

 The electronic state is 1-A.
 Alpha  occ. eigenvalues --  -19.24614 -19.23922 -10.28861 -10.28744 -10.28695
 Alpha  occ. eigenvalues --  -10.28287 -10.22990 -10.22860 -10.22705 -10.22362
 Alpha  occ. eigenvalues --  -10.22297 -10.22280 -10.22055 -10.21834 -10.21692
 Alpha  occ. eigenvalues --  -10.21497  -1.11539  -1.09897  -0.88597  -0.87898
 Alpha  occ. eigenvalues --   -0.81854  -0.77687  -0.77082  -0.76823  -0.74296
 Alpha  occ. eigenvalues --   -0.68294  -0.63316  -0.63103  -0.61750  -0.59993
 Alpha  occ. eigenvalues --   -0.56992  -0.56001  -0.51571  -0.51308  -0.50221
 Alpha  occ. eigenvalues --   -0.49138  -0.48296  -0.46819  -0.45474  -0.45176
 Alpha  occ. eigenvalues --   -0.43786  -0.43486  -0.42840  -0.40596  -0.39903
 Alpha  occ. eigenvalues --   -0.38236  -0.37731  -0.37459  -0.36681  -0.35075
 Alpha  occ. eigenvalues --   -0.34373  -0.33762  -0.32974  -0.27106  -0.26447
 Alpha  occ. eigenvalues --   -0.24048  -0.23342
 Alpha virt. eigenvalues --   -0.00989  -0.00342   0.00593   0.01040   0.04560
 Alpha virt. eigenvalues --    0.05911   0.06133   0.07869   0.08992   0.09452
 Alpha virt. eigenvalues --    0.09841   0.10167   0.10611   0.11004   0.11517

 Mulliken charges:
               1
     1  C    0.003651
     2  H    0.086661
     3  H    0.082609
     4  C    0.005233
     5  H    0.101570
     6  H    0.075361
     7  O   -0.241379
     8  O   -0.251588
     9  C    0.260626
    10  C   -0.158796
    11  C   -0.201254
    12  C   -0.148391
    13  C   -0.088404
    14  C   -0.133871
    15  H    0.093846
    16  H    0.106711
    17  H    0.113038
    18  H    0.114464
    19  H    0.113961
    20  C    0.236650
    21  C   -0.186258
    22  C   -0.117589
    23  C   -0.100993
    24  C   -0.162865
    25  C   -0.124763
    26  H    0.101920
    27  H    0.085595
    28  H    0.110220
    29  H    0.111921
    30  H    0.112114
 Sum of Mulliken charges =   0.00000

 Dipole moment (field-independent basis, Debye):
    X=              0.9556    Y=              1.2253    Z=             -0.7071  Tot=              1.7072
 Quadrupole moment (field-independent basis, Debye-Ang):
   XX=            -91.9305   YY=            -83.6758   ZZ=            -95.2218
   XY=              3.1140   XZ=              0.2165   YZ=              0.3648

 Summary of Natural Population Analysis:

                                       Natural Population
                Natural  -----------------------------------------------
    Atom  No    Charge         Core      Valence    Rydberg      Total
 -----------------------------------------------------------------------
      C    1   -0.10879      1.99924     4.09181    0.01774     6.10879
      H    2    0.18683      0.00000     0.81046    0.00271     0.81317
      H    3    0.17783      0.00000     0.81952    0.00265     0.82217
      C    4   -0.09945      1.99921     4.08132    0.01892     6.09945
      H    5    0.19770      0.00000     0.80040    0.00189     0.80230
      H    6    0.18977      0.00000     0.80751    0.00271     0.81023
      O    7   -0.45700      1.99971     6.43326    0.02403     8.45700
      O    8   -0.45696      1.99973     6.43424    0.02299     8.45696
      C    9    0.28547      1.99875     3.69448    0.02129     5.71453
      C   10   -0.31015      1.99905     4.29234    0.01876     6.31015
      C   11   -0.25607      1.99908     4.23732    0.01967     6.25607
      C   12   -0.19086      1.99921     4.17220    0.01945     6.19086
      C   13   -0.19297      1.99920     4.17488    0.01889     6.19297
      C   14   -0.24822      1.99918     4.22929    0.01975     6.24822
      H   15    0.22014      0.00000     0.77791    0.00196     0.77986
      H   16    0.22767      0.00000     0.77063    0.00170     0.77233
      H   17    0.21560      0.00000     0.78283    0.00157     0.78440
      H   18    0.21698      0.00000     0.78149    0.00152     0.78302
      H   19    0.21731      0.00000     0.78120    0.00148     0.78269
      C   20    0.28577      1.99872     3.69404    0.02147     5.71423
      C   21   -0.25938      1.99908     4.24070    0.01961     6.25938
      C   22   -0.30284      1.99902     4.28418    0.01964     6.30284
      C   23   -0.19616      1.99920     4.17820    0.01876     6.19616
      C   24   -0.19302      1.99921     4.17491    0.01890     6.19302
      C   25   -0.24981      1.99918     4.23096    0.01967     6.24981
      H   26    0.22512      0.00000     0.77318    0.00171     0.77488
      H   27    0.23021      0.00000     0.76739    0.00240     0.76979
      H   28    0.21555      0.00000     0.78299    0.00146     0.78445
      H   29    0.21386      0.00000     0.78455    0.00159     0.78614
      H   30    0.21588      0.00000     0.78262    0.00150     0.78412
 =======================================================================
   * Total *    0.00000     31.98679    81.66682    0.34639   114.00000

 Error termination via Lnk1e at Fri May 17 10:32:17 2024.
 Normal termination of Gaussian 09 at Fri May 17 10:32:09 2024.
