 Gaussian 09, Revision D.01,
 Gaussian 09:  EM64L-G09RevD.01 24-Apr-2013

 --------------------------
 #P PBE1PBE/GEN pop=nboread
 --------------------------

 ---
 c2h
 ---
 Symbolic Z-matrix:
 Charge =  0 Multiplicity = 1

                         Standard orientation:
 ---------------------------------------------------------------------
 Center     Atomic      Atomic             Coordinates (Angstroms)
 Number     Number       Type             X           Y           Z
 ---------------------------------------------------------------------
      1          6           0       -0.285207   -1.459685   -0.218854
      2          1           0        0.122674   -2.435719   -0.483749
      3          1           0       -0.024034   -0.758134   -1.019211
      4          6           0        0.291367   -0.956792    1.110069
      5          1           0       -0.535732   -0.724280    1.781137
      6          1           0        0.911063   -1.719783    1.591768
      7          8           0       -1.678289   -1.668047   -0.164426
      8          8           0        1.018771    0.247930    0.988468
      9          6           0       -2.498565   -0.585887   -0.170297
     10          6           0       -3.863558   -0.865458   -0.165694
     11          6           0       -2.060712    0.733990   -0.182763
     12          6           0       -4.780578    0.167326   -0.182340
     13          6           0       -2.997569    1.760818   -0.200440
     14          6           0       -4.354282    1.490417   -0.201553
     15          1           0       -4.179861   -1.901576   -0.154613
     16          1           0       -1.006558    0.976416   -0.162025
     17          1           0       -5.840043   -0.062497   -0.182220
     18          1           0       -2.648620    2.787234   -0.208687
     19          1           0       -5.075026    2.298828   -0.213915
     20          6           0        2.252079    0.205781    0.427542
     21          6           0        2.853735   -0.945977   -0.067510
     22          6           0        2.929342    1.421768    0.361843
     23          6           0        4.127461   -0.871132   -0.618430
     24          6           0        4.193864    1.480450   -0.190593
     25          6           0        4.804114    0.333512   -0.685362
     26          1           0        2.346522   -1.901089   -0.034496
     27          1           0        2.443196    2.306362    0.755300
     28          1           0        4.587741   -1.774587   -1.002021
     29          1           0        4.710442    2.432473   -0.234652
     30          1           0        5.795434    0.382502   -1.118655
 ---------------------------------------------------------------------

 SCF Done:  E(RPBE1PBE) =  -691.790776796     A.U. after   13 cycles

 The electronic state is 1-A.
 Alpha  occ. eigenvalues --  -19.24811 -19.24357 -10.29193 -10.28655 -10.28627
 Alpha  occ. eigenvalues --  -10.28560 -10.23340 -10.23188 -10.23099 -10.22664
 Alpha  occ. eigenvalues --  -10.22639 -10.22589 -10.22352 -10.22209 -10.22063
 Alpha  occ. eigenvalues --  -10.21806  -1.11495  -1.10467  -0.88825  -0.88209
 Alpha  occ. eigenvalues --   -0.81278  -0.77956  -0.77643  -0.77176  -0.74578
 Alpha  occ. eigenvalues --   -0.68752  -0.63850  -0.63223  -0.61960  -0.60433
 Alpha  occ. eigenvalues --   -0.56476  -0.56156  -0.52300  -0.51128  -0.50473
 Alpha  occ. eigenvalues --   -0.49745  -0.48801  -0.46544  -0.45689  -0.44413
 Alpha  occ. eigenvalues --   -0.43818  -0.43323  -0.43113  -0.42638  -0.39574
 Alpha  occ. eigenvalues --   -0.38801  -0.37877  -0.37487  -0.36825  -0.35725
 Alpha  occ. eigenvalues --   -0.34855  -0.33841  -0.33178  -0.27460  -0.26817
 Alpha  occ. eigenvalues --   -0.24590  -0.23423
 Alpha virt. eigenvalues --   -0.01378  -0.00763   0.00194   0.00805   0.04437
 Alpha virt. eigenvalues --    0.06078   0.06588   0.07330   0.08077   0.08901
 Alpha virt. eigenvalues --    0.09421   0.10032   0.10504   0.11179   0.11511

 Mulliken charges:
               1
     1  C   -0.030303
     2  H    0.098828
     3  H    0.103770
     4  C   -0.010460
     5  H    0.122690
     6  H    0.093671
     7  O   -0.245472
     8  O   -0.251292
     9  C    0.243028
    10  C   -0.216031
    11  C   -0.135318
    12  C   -0.087362
    13  C   -0.162638
    14  C   -0.131014
    15  H    0.103381
    16  H    0.100651
    17  H    0.112001
    18  H    0.114924
    19  H    0.113019
    20  C    0.256911
    21  C   -0.161834
    22  C   -0.201074
    23  C   -0.150805
    24  C   -0.088705
    25  C   -0.132200
    26  H    0.089555
    27  H    0.106968
    28  H    0.115673
    29  H    0.114197
    30  H    0.115245
 Sum of Mulliken charges =   0.00000

 Dipole moment (field-independent basis, Debye):
    X=              0.9077    Y=             -0.5181    Z=             -0.0317  Tot=              1.0457
 Quadrupole moment (field-independent basis, Debye-Ang):
   XX=            -88.9401   YY=            -86.7378   ZZ=            -98.5195
   XY=             -1.6996   XZ=             -3.1167   YZ=             -0.2684

 Summary of Natural Population Analysis:

                                       Natural Population
                Natural  -----------------------------------------------
    Atom  No    Charge         Core      Valence    Rydberg      Total
 -----------------------------------------------------------------------
      C    1   -0.12308      1.99924     4.10542    0.01841     6.12308
      H    2    0.20037      0.00000     0.79763    0.00200     0.79963
      H    3    0.19297      0.00000     0.80396    0.00307     0.80703
      C    4   -0.12814      1.99924     4.11000    0.01889     6.12814
      H    5    0.21938      0.00000     0.77865    0.00197     0.78062
      H    6    0.18671      0.00000     0.81076    0.00253     0.81329
      O    7   -0.44965      1.99974     6.42695    0.02296     8.44965
      O    8   -0.45259      1.99973     6.43012    0.02274     8.45259
      C    9    0.27706      1.99874     3.70267    0.02152     5.72294
      C   10   -0.25835      1.99908     4.23961    0.01966     6.25835
      C   11   -0.31712      1.99903     4.29810    0.01999     6.31712
      C   12   -0.19441      1.99920     4.17655    0.01866     6.19441
      C   13   -0.18901      1.99921     4.17083    0.01897     6.18901
      C   14   -0.24867      1.99918     4.22993    0.01955     6.24867
      H   15    0.22626      0.00000     0.77204    0.00170     0.77374
      H   16    0.23287      0.00000     0.76439    0.00274     0.76713
      H   17    0.21634      0.00000     0.78221    0.00145     0.78366
      H   18    0.21587      0.00000     0.78256    0.00157     0.78413
      H   19    0.21678      0.00000     0.78172    0.00149     0.78322
      C   20    0.28069      1.99874     3.69858    0.02199     5.71931
      C   21   -0.31350      1.99904     4.29523    0.01922     6.31350
      C   22   -0.25845      1.99908     4.23950    0.01987     6.25845
      C   23   -0.18937      1.99921     4.17062    0.01954     6.18937
      C   24   -0.19117      1.99920     4.17313    0.01883     6.19117
      C   25   -0.24849      1.99918     4.22958    0.01973     6.24849
      H   26    0.21693      0.00000     0.78067    0.00240     0.78307
      H   27    0.22756      0.00000     0.77074    0.00170     0.77244
      H   28    0.21646      0.00000     0.78197    0.00158     0.78354
      H   29    0.21756      0.00000     0.78093    0.00151     0.78244
      H   30    0.21819      0.00000     0.78032    0.00148     0.78181
 =======================================================================
   * Total *    0.00000     31.98686    81.66540    0.34774   114.00000

 Normal termination of Gaussian 09 at Fri May 17 10:27:23 2024.
