 Gaussian 09, Revision D.01,
 Gaussian 09:  EM64L-G09RevD.01 24-Apr-2013

 --------------------------
 #P PBE1PBE/GEN pop=nboread
 --------------------------

 ---
 c2h
 ---
 Symbolic Z-matrix:
 Charge =  0 Multiplicity = 1

                         Standard orientation:
 ---------------------------------------------------------------------
 Center     Atomic      Atomic             Coordinates (Angstroms)
 Number     Number       Type             X           Y           Z
 ---------------------------------------------------------------------
      1          6           0       -0.640735    0.405014   -0.975836
      2          1           0       -1.501264   -0.256335   -0.867175
      3          1           0       -0.747669    0.937777   -1.928091
      4          6           0        0.640735   -0.405014   -0.975836
      5          1           0        0.747669   -0.937777   -1.928091
      6          1           0        1.501264    0.256335   -0.867175
      7          8           0       -0.722868    1.290683    0.116774
      8          8           0        0.722868   -1.290683    0.116774
      9          6           0        0.003694    2.434464    0.098937
     10          6           0        0.751165    2.887886   -0.983635
     11          6           0       -0.044517    3.193180    1.267009
     12          6           0        1.435372    4.093937   -0.887856
     13          6           0        0.640735    4.389485    1.346867
     14          6           0        1.387756    4.850680    0.268968
     15          1           0        0.811175    2.320892   -1.902896
     16          1           0       -0.630207    2.820477    2.098574
     17          1           0        2.014441    4.437413   -1.737662
     18          1           0        0.592617    4.968830    2.261903
     19          1           0        1.926480    5.787927    0.334422
     20          6           0       -0.003694   -2.434464    0.098937
     21          6           0       -0.751165   -2.887886   -0.983635
     22          6           0        0.044517   -3.193180    1.267009
     23          6           0       -1.435372   -4.093937   -0.887856
     24          6           0       -0.640735   -4.389485    1.346867
     25          6           0       -1.387756   -4.850680    0.268968
     26          1           0       -0.811175   -2.320892   -1.902896
     27          1           0        0.630207   -2.820477    2.098574
     28          1           0       -2.014441   -4.437413   -1.737662
     29          1           0       -0.592617   -4.968830    2.261903
     30          1           0       -1.926480   -5.787927    0.334422
 ---------------------------------------------------------------------

 SCF Done:  E(RPBE1PBE) =  -691.791946716     A.U. after   19 cycles

 The electronic state is 1-A.
 Alpha  occ. eigenvalues --  -19.24249 -19.24249 -10.28823 -10.28823 -10.28577
 Alpha  occ. eigenvalues --  -10.28550 -10.23002 -10.23002 -10.22804 -10.22804
 Alpha  occ. eigenvalues --  -10.22748 -10.22748 -10.22139 -10.22139 -10.21995
 Alpha  occ. eigenvalues --  -10.21995  -1.11400  -1.10064  -0.88577  -0.88314
 Alpha  occ. eigenvalues --   -0.81438  -0.77760  -0.77440  -0.77307  -0.74762
 Alpha  occ. eigenvalues --   -0.68678  -0.63570  -0.63243  -0.62500  -0.60010
 Alpha  occ. eigenvalues --   -0.57149  -0.54158  -0.52349  -0.51300  -0.50640
 Alpha  occ. eigenvalues --   -0.49494  -0.49366  -0.46697  -0.45867  -0.44852
 Alpha  occ. eigenvalues --   -0.43708  -0.43444  -0.42532  -0.41979  -0.39737
 Alpha  occ. eigenvalues --   -0.38491  -0.37748  -0.37612  -0.36784  -0.35890
 Alpha  occ. eigenvalues --   -0.34624  -0.33444  -0.33208  -0.27097  -0.27064
 Alpha  occ. eigenvalues --   -0.24185  -0.23437
 Alpha virt. eigenvalues --   -0.00991  -0.00961   0.00494   0.00595   0.04122
 Alpha virt. eigenvalues --    0.05878   0.06813   0.07968   0.08387   0.08734
 Alpha virt. eigenvalues --    0.09822   0.09945   0.10409   0.11093   0.11790

 Mulliken charges:
               1
     1  C   -0.003776
     2  H    0.114374
     3  H    0.075087
     4  C   -0.003776
     5  H    0.075087
     6  H    0.114374
     7  O   -0.241396
     8  O   -0.241396
     9  C    0.264757
    10  C   -0.174618
    11  C   -0.202273
    12  C   -0.149106
    13  C   -0.089860
    14  C   -0.133274
    15  H    0.092393
    16  H    0.106908
    17  H    0.114042
    18  H    0.112912
    19  H    0.113831
    20  C    0.264757
    21  C   -0.174618
    22  C   -0.202273
    23  C   -0.149106
    24  C   -0.089860
    25  C   -0.133274
    26  H    0.092393
    27  H    0.106908
    28  H    0.114042
    29  H    0.112912
    30  H    0.113831
 Sum of Mulliken charges =   0.00000

 Dipole moment (field-independent basis, Debye):
    X=              0.0000    Y=              0.0000    Z=             -1.7541  Tot=              1.7541
 Quadrupole moment (field-independent basis, Debye-Ang):
   XX=            -95.9399   YY=            -91.1111   ZZ=            -85.1557
   XY=              6.2539   XZ=              0.0000   YZ=              0.0000

 Summary of Natural Population Analysis:

                                       Natural Population
                Natural  -----------------------------------------------
    Atom  No    Charge         Core      Valence    Rydberg      Total
 -----------------------------------------------------------------------
      C    1   -0.12005      1.99923     4.10207    0.01875     6.12005
      H    2    0.21241      0.00000     0.78543    0.00215     0.78759
      H    3    0.18128      0.00000     0.81603    0.00269     0.81872
      C    4   -0.12005      1.99923     4.10207    0.01875     6.12005
      H    5    0.18128      0.00000     0.81603    0.00269     0.81872
      H    6    0.21241      0.00000     0.78543    0.00215     0.78759
      O    7   -0.44402      1.99973     6.42077    0.02352     8.44402
      O    8   -0.44402      1.99973     6.42077    0.02352     8.44402
      C    9    0.28350      1.99873     3.69588    0.02188     5.71650
      C   10   -0.31674      1.99904     4.29825    0.01945     6.31674
      C   11   -0.25587      1.99908     4.23689    0.01990     6.25587
      C   12   -0.19128      1.99921     4.17240    0.01966     6.19128
      C   13   -0.19210      1.99920     4.17403    0.01887     6.19210
      C   14   -0.25011      1.99918     4.23107    0.01986     6.25011
      H   15    0.21503      0.00000     0.78265    0.00233     0.78497
      H   16    0.22853      0.00000     0.76977    0.00169     0.77147
      H   17    0.21522      0.00000     0.78319    0.00159     0.78478
      H   18    0.21687      0.00000     0.78161    0.00152     0.78313
      H   19    0.21732      0.00000     0.78119    0.00150     0.78268
      C   20    0.28350      1.99873     3.69588    0.02188     5.71650
      C   21   -0.31674      1.99904     4.29825    0.01945     6.31674
      C   22   -0.25587      1.99908     4.23689    0.01990     6.25587
      C   23   -0.19128      1.99921     4.17240    0.01966     6.19128
      C   24   -0.19210      1.99920     4.17403    0.01887     6.19210
      C   25   -0.25011      1.99918     4.23107    0.01986     6.25011
      H   26    0.21503      0.00000     0.78265    0.00233     0.78497
      H   27    0.22853      0.00000     0.76977    0.00169     0.77147
      H   28    0.21522      0.00000     0.78319    0.00159     0.78478
      H   29    0.21687      0.00000     0.78161    0.00152     0.78313
      H   30    0.21732      0.00000     0.78119    0.00150     0.78268
 =======================================================================
   * Total *    0.00000     31.98682    81.66249    0.35069   114.00000

 Normal termination of Gaussian 09 at Fri May 17 10:32:12 2024.
