 Gaussian 09, Revision D.01,
 Gaussian 09:  EM64L-G09RevD.01 24-Apr-2013

 --------------------------
 #P PBE1PBE/GEN pop=nboread
 --------------------------

 ---
 H12
 ---
 Symbolic Z-matrix:
 Charge =  0 Multiplicity = 1

                         Standard orientation:
 ---------------------------------------------------------------------
 Center     Atomic      Atomic             Coordinates (Angstroms)
 Number     Number       Type             X           Y           Z
 ---------------------------------------------------------------------
      1          6           0       -0.450221    0.607970    2.592092
      2          1           0        0.145531    1.524212    2.543415
      3          1           0       -0.991186    0.611460    3.543595
      4          6           0        0.450221   -0.607970    2.592092
      5          1           0        0.991186   -0.611460    3.543595
      6          1           0       -0.145531   -1.524212    2.543415
      7          8           0       -1.444568    0.596918    1.591010
      8          8           0        1.444568   -0.596918    1.591010
      9          6           0       -1.256780    1.282934    0.431281
     10          6           0       -0.034248    1.777142   -0.005852
     11          6           0       -2.394446    1.452924   -0.352263
     12          6           0        0.034248    2.447257   -1.219953
     13          6           0       -2.308997    2.117090   -1.561562
     14          6           0       -1.093371    2.623499   -2.003250
     15          1           0        0.868399    1.612372    0.566209
     16          1           0       -3.336063    1.056397    0.008228
     17          1           0        0.993849    2.821449   -1.558013
     18          1           0       -3.202005    2.243282   -2.163143
     19          1           0       -1.027011    3.143012   -2.951322
     20          6           0        1.256780   -1.282934    0.431281
     21          6           0        2.394446   -1.452924   -0.352263
     22          6           0        0.034248   -1.777142   -0.005852
     23          6           0        2.308997   -2.117090   -1.561562
     24          6           0       -0.034248   -2.447257   -1.219953
     25          6           0        1.093371   -2.623499   -2.003250
     26          1           0        3.336063   -1.056397    0.008228
     27          1           0       -0.868399   -1.612372    0.566209
     28          1           0        3.202005   -2.243282   -2.163143
     29          1           0       -0.993849   -2.821449   -1.558013
     30          1           0        1.027011   -3.143012   -2.951322
 ---------------------------------------------------------------------

 SCF Done:  E(RPBE1PBE) =  -691.790718220     A.U. after   16 cycles

 The electronic state is 1-A.
 Alpha  occ. eigenvalues --  -19.24170 -19.24170 -10.28633 -10.28607 -10.28353
 Alpha  occ. eigenvalues --  -10.28353 -10.22394 -10.22394 -10.22388 -10.22388
 Alpha  occ. eigenvalues --  -10.21939 -10.21939 -10.21821 -10.21821 -10.21557
 Alpha  occ. eigenvalues --  -10.21557  -1.11078  -1.09794  -0.88240  -0.87836
 Alpha  occ. eigenvalues --   -0.81504  -0.77344  -0.77012  -0.76732  -0.74212
 Alpha  occ. eigenvalues --   -0.68324  -0.63250  -0.62812  -0.61526  -0.59814
 Alpha  occ. eigenvalues --   -0.56674  -0.55553  -0.52011  -0.50440  -0.49922
 Alpha  occ. eigenvalues --   -0.49310  -0.48870  -0.45833  -0.45352  -0.44607
 Alpha  occ. eigenvalues --   -0.43354  -0.43141  -0.41999  -0.41784  -0.39296
 Alpha  occ. eigenvalues --   -0.38536  -0.37251  -0.37113  -0.36675  -0.35510
 Alpha  occ. eigenvalues --   -0.34260  -0.33583  -0.32373  -0.26580  -0.26495
 Alpha  occ. eigenvalues --   -0.23653  -0.23309
 Alpha virt. eigenvalues --   -0.00717  -0.00431   0.00854   0.01268   0.05374
 Alpha virt. eigenvalues --    0.06391   0.06569   0.07767   0.08960   0.09548
 Alpha virt. eigenvalues --    0.09949   0.10304   0.10460   0.11255   0.11556

 Mulliken charges:
               1
     1  C    0.013114
     2  H    0.074003
     3  H    0.097580
     4  C    0.013114
     5  H    0.097580
     6  H    0.074003
     7  O   -0.264338
     8  O   -0.264338
     9  C    0.251383
    10  C   -0.117959
    11  C   -0.209839
    12  C   -0.160395
    13  C   -0.094617
    14  C   -0.125215
    15  H    0.100152
    16  H    0.102690
    17  H    0.111430
    18  H    0.110226
    19  H    0.111783
    20  C    0.251383
    21  C   -0.209839
    22  C   -0.117959
    23  C   -0.094617
    24  C   -0.160395
    25  C   -0.125215
    26  H    0.102690
    27  H    0.100152
    28  H    0.110226
    29  H    0.111430
    30  H    0.111783
 Sum of Mulliken charges =   0.00000

 Dipole moment (field-independent basis, Debye):
    X=              0.0000    Y=              0.0000    Z=              1.1645  Tot=              1.1645
 Quadrupole moment (field-independent basis, Debye-Ang):
   XX=            -90.3335   YY=            -97.0535   ZZ=            -83.1797
   XY=              3.2955   XZ=              0.0000   YZ=              0.0000

 Summary of Natural Population Analysis:

                                       Natural Population
                Natural  -----------------------------------------------
    Atom  No    Charge         Core      Valence    Rydberg      Total
 -----------------------------------------------------------------------
      C    1   -0.11285      1.99922     4.09462    0.01901     6.11285
      H    2    0.19135      0.00000     0.80630    0.00235     0.80865
      H    3    0.19822      0.00000     0.79971    0.00207     0.80178
      C    4   -0.11285      1.99922     4.09462    0.01901     6.11285
      H    5    0.19822      0.00000     0.79971    0.00207     0.80178
      H    6    0.19135      0.00000     0.80630    0.00235     0.80865
      O    7   -0.46750      1.99974     6.44381    0.02395     8.46750
      O    8   -0.46750      1.99974     6.44381    0.02395     8.46750
      C    9    0.28287      1.99871     3.69488    0.02354     5.71713
      C   10   -0.30489      1.99903     4.28683    0.01902     6.30489
      C   11   -0.26185      1.99908     4.24327    0.01950     6.26185
      C   12   -0.18672      1.99921     4.16897    0.01854     6.18672
      C   13   -0.19417      1.99920     4.17644    0.01852     6.19417
      C   14   -0.24698      1.99918     4.22848    0.01932     6.24698
      H   15    0.22998      0.00000     0.76742    0.00259     0.77002
      H   16    0.22477      0.00000     0.77356    0.00167     0.77523
      H   17    0.21566      0.00000     0.78282    0.00152     0.78434
      H   18    0.21565      0.00000     0.78295    0.00140     0.78435
      H   19    0.21644      0.00000     0.78215    0.00141     0.78356
      C   20    0.28287      1.99871     3.69488    0.02354     5.71713
      C   21   -0.26185      1.99908     4.24327    0.01950     6.26185
      C   22   -0.30489      1.99903     4.28683    0.01902     6.30489
      C   23   -0.19417      1.99920     4.17644    0.01852     6.19417
      C   24   -0.18672      1.99921     4.16897    0.01854     6.18672
      C   25   -0.24698      1.99918     4.22848    0.01932     6.24698
      H   26    0.22477      0.00000     0.77356    0.00167     0.77523
      H   27    0.22998      0.00000     0.76742    0.00259     0.77002
      H   28    0.21565      0.00000     0.78295    0.00140     0.78435
      H   29    0.21566      0.00000     0.78282    0.00152     0.78434
      H   30    0.21644      0.00000     0.78215    0.00141     0.78356
 =======================================================================
   * Total *    0.00000     31.98674    81.66440    0.34886   114.00000

 Normal termination of Gaussian 09 at Fri May 17 10:23:50 2024.
