 Gaussian 09, Revision D.01,
 Gaussian 09:  EM64L-G09RevD.01 24-Apr-2013

 --------------------------
 #P PBE1PBE/GEN pop=nboread
 --------------------------

 -
 s
 -
 Symbolic Z-matrix:
 Charge =  0 Multiplicity = 1

                         Standard orientation:
 ---------------------------------------------------------------------
 Center     Atomic      Atomic             Coordinates (Angstroms)
 Number     Number       Type             X           Y           Z
 ---------------------------------------------------------------------
      1          6           0        0.180647    0.728636   -1.294463
      2          1           0       -0.141395    1.176958   -2.243415
      3          1           0        1.268194    0.839062   -1.207677
      4          6           0       -0.180647   -0.728636   -1.294463
      5          1           0       -1.268194   -0.839062   -1.207677
      6          1           0        0.141395   -1.176958   -2.243415
      7          8           0       -0.469278    1.346530   -0.211297
      8          8           0        0.469278   -1.346530   -0.211297
      9          6           0       -0.244183    2.664237    0.001390
     10          6           0       -0.885667    3.220129    1.106683
     11          6           0        0.562606    3.461519   -0.803425
     12          6           0       -0.719702    4.559164    1.400290
     13          6           0        0.719702    4.807499   -0.493457
     14          6           0        0.085139    5.364607    0.602003
     15          1           0       -1.507095    2.579017    1.720169
     16          1           0        1.070177    3.051122   -1.665930
     17          1           0       -1.223136    4.980138    2.263187
     18          1           0        1.350951    5.421891   -1.125506
     19          1           0        0.213978    6.414357    0.835426
     20          6           0        0.244183   -2.664237    0.001390
     21          6           0       -0.562606   -3.461519   -0.803425
     22          6           0        0.885667   -3.220129    1.106683
     23          6           0       -0.719702   -4.807499   -0.493457
     24          6           0        0.719702   -4.559164    1.400290
     25          6           0       -0.085139   -5.364607    0.602003
     26          1           0       -1.070177   -3.051122   -1.665930
     27          1           0        1.507095   -2.579017    1.720169
     28          1           0       -1.350951   -5.421891   -1.125506
     29          1           0        1.223136   -4.980138    2.263187
     30          1           0       -0.213978   -6.414357    0.835426
 ---------------------------------------------------------------------

 SCF Done:  E(RPBE1PBE) =  -691.796977769     A.U. after   20 cycles

 The electronic state is 1-A.
 Alpha  occ. eigenvalues --  -19.24339 -19.24339 -10.28762 -10.28733 -10.28672
 Alpha  occ. eigenvalues --  -10.28672 -10.22837 -10.22837 -10.22703 -10.22703
 Alpha  occ. eigenvalues --  -10.22533 -10.22533 -10.22087 -10.22087 -10.21890
 Alpha  occ. eigenvalues --  -10.21890  -1.11639  -1.10273  -0.88621  -0.88129
 Alpha  occ. eigenvalues --   -0.82093  -0.77627  -0.77374  -0.76748  -0.74407
 Alpha  occ. eigenvalues --   -0.68204  -0.63501  -0.62691  -0.62154  -0.60171
 Alpha  occ. eigenvalues --   -0.56996  -0.56593  -0.51564  -0.51246  -0.50532
 Alpha  occ. eigenvalues --   -0.48473  -0.48305  -0.47706  -0.46121  -0.45388
 Alpha  occ. eigenvalues --   -0.43853  -0.43544  -0.42537  -0.40242  -0.39569
 Alpha  occ. eigenvalues --   -0.39048  -0.37770  -0.37410  -0.36913  -0.34641
 Alpha  occ. eigenvalues --   -0.34414  -0.33933  -0.33834  -0.26952  -0.26942
 Alpha  occ. eigenvalues --   -0.24025  -0.23570
 Alpha virt. eigenvalues --   -0.00829  -0.00794   0.00655   0.00908   0.04201
 Alpha virt. eigenvalues --    0.05639   0.06329   0.07704   0.08748   0.09883
 Alpha virt. eigenvalues --    0.09970   0.10053   0.10614   0.10963   0.11799

 Mulliken charges:
               1
     1  C    0.001584
     2  H    0.082635
     3  H    0.086645
     4  C    0.001584
     5  H    0.086645
     6  H    0.082635
     7  O   -0.225188
     8  O   -0.225188
     9  C    0.247225
    10  C   -0.191320
    11  C   -0.156570
    12  C   -0.094225
    13  C   -0.160680
    14  C   -0.127756
    15  H    0.106227
    16  H    0.092233
    17  H    0.112607
    18  H    0.113058
    19  H    0.113525
    20  C    0.247225
    21  C   -0.156570
    22  C   -0.191320
    23  C   -0.160680
    24  C   -0.094225
    25  C   -0.127756
    26  H    0.092233
    27  H    0.106227
    28  H    0.113058
    29  H    0.112607
    30  H    0.113525
 Sum of Mulliken charges =   0.00000

 Dipole moment (field-independent basis, Debye):
    X=              0.0000    Y=              0.0000    Z=             -1.7139  Tot=              1.7139
 Quadrupole moment (field-independent basis, Debye-Ang):
   XX=            -94.9493   YY=            -88.9286   ZZ=            -86.9104
   XY=              3.2900   XZ=              0.0000   YZ=              0.0000

 Summary of Natural Population Analysis:

                                       Natural Population
                Natural  -----------------------------------------------
    Atom  No    Charge         Core      Valence    Rydberg      Total
 -----------------------------------------------------------------------
      C    1   -0.09971      1.99923     4.08294    0.01753     6.09971
      H    2    0.17965      0.00000     0.81794    0.00240     0.82035
      H    3    0.18737      0.00000     0.80995    0.00268     0.81263
      C    4   -0.09971      1.99923     4.08294    0.01753     6.09971
      H    5    0.18737      0.00000     0.80995    0.00268     0.81263
      H    6    0.17965      0.00000     0.81794    0.00240     0.82035
      O    7   -0.44526      1.99972     6.42160    0.02394     8.44526
      O    8   -0.44526      1.99972     6.42160    0.02394     8.44526
      C    9    0.28557      1.99875     3.69439    0.02128     5.71443
      C   10   -0.25641      1.99908     4.23762    0.01972     6.25641
      C   11   -0.31241      1.99905     4.29453    0.01884     6.31241
      C   12   -0.19368      1.99920     4.17556    0.01892     6.19368
      C   13   -0.19122      1.99921     4.17252    0.01948     6.19122
      C   14   -0.24972      1.99918     4.23073    0.01981     6.24972
      H   15    0.22779      0.00000     0.77051    0.00169     0.77221
      H   16    0.21941      0.00000     0.77862    0.00197     0.78059
      H   17    0.21655      0.00000     0.78194    0.00152     0.78345
      H   18    0.21515      0.00000     0.78327    0.00158     0.78485
      H   19    0.21693      0.00000     0.78159    0.00148     0.78307
      C   20    0.28557      1.99875     3.69439    0.02128     5.71443
      C   21   -0.31241      1.99905     4.29453    0.01884     6.31241
      C   22   -0.25641      1.99908     4.23762    0.01972     6.25641
      C   23   -0.19122      1.99921     4.17252    0.01948     6.19122
      C   24   -0.19368      1.99920     4.17556    0.01892     6.19368
      C   25   -0.24972      1.99918     4.23073    0.01981     6.24972
      H   26    0.21941      0.00000     0.77862    0.00197     0.78059
      H   27    0.22779      0.00000     0.77051    0.00169     0.77221
      H   28    0.21515      0.00000     0.78327    0.00158     0.78485
      H   29    0.21655      0.00000     0.78194    0.00152     0.78345
      H   30    0.21693      0.00000     0.78159    0.00148     0.78307
 =======================================================================
   * Total *    0.00000     31.98686    81.66745    0.34569   114.00000

 Normal termination of Gaussian 09 at Fri May 17 11:35:59 2024.
