 Gaussian 09, Revision D.01,
 Gaussian 09:  EM64L-G09RevD.01 24-Apr-2013

 --------------------------
 #P PBE1PBE/GEN pop=nboread
 --------------------------

 ---
 c2h
 ---
 Symbolic Z-matrix:
 Charge =  0 Multiplicity = 1

                         Standard orientation:
 ---------------------------------------------------------------------
 Center     Atomic      Atomic             Coordinates (Angstroms)
 Number     Number       Type             X           Y           Z
 ---------------------------------------------------------------------
      1          6           0       -0.293388    0.633967   -0.300512
      2          1           0        0.501387    1.355919   -0.512380
      3          1           0       -0.982895    1.103087    0.402386
      4          6           0        0.293388   -0.633967    0.300512
      5          1           0       -0.501387   -1.355919    0.512380
      6          1           0        0.982895   -1.103087   -0.402386
      7          8           0       -1.056329    0.345601   -1.449537
      8          8           0        1.056329   -0.345601    1.449537
      9          6           0       -0.423813    0.143786   -2.634069
     10          6           0        0.948850    0.251332   -2.830378
     11          6           0       -1.250841   -0.180694   -3.707074
     12          6           0        1.477666    0.036330   -4.097189
     13          6           0       -0.709696   -0.392665   -4.960374
     14          6           0        0.660547   -0.285822   -5.166247
     15          1           0        1.615539    0.498108   -2.014941
     16          1           0       -2.317223   -0.257568   -3.532241
     17          1           0        2.548995    0.122190   -4.239339
     18          1           0       -1.365482   -0.643490   -5.786352
     19          1           0        1.083284   -0.453396   -6.149160
     20          6           0        0.423813   -0.143786    2.634069
     21          6           0       -0.948850   -0.251332    2.830378
     22          6           0        1.250841    0.180694    3.707074
     23          6           0       -1.477666   -0.036330    4.097189
     24          6           0        0.709696    0.392665    4.960374
     25          6           0       -0.660547    0.285822    5.166247
     26          1           0       -1.615539   -0.498108    2.014941
     27          1           0        2.317223    0.257568    3.532241
     28          1           0       -2.548995   -0.122190    4.239339
     29          1           0        1.365482    0.643490    5.786352
     30          1           0       -1.083284    0.453396    6.149160
 ---------------------------------------------------------------------

 SCF Done:  E(RPBE1PBE) =  -691.792443009     A.U. after   14 cycles

 The electronic state is 1-AG.
 Alpha  occ. eigenvalues --  -19.24700 -19.24700 -10.29047 -10.29047 -10.28439
 Alpha  occ. eigenvalues --  -10.28413 -10.23109 -10.23109 -10.22978 -10.22978
 Alpha  occ. eigenvalues --  -10.22831 -10.22831 -10.22365 -10.22365 -10.22134
 Alpha  occ. eigenvalues --  -10.22134  -1.11432  -1.10615  -0.88739  -0.88514
 Alpha  occ. eigenvalues --   -0.81435  -0.77940  -0.77588  -0.77507  -0.74572
 Alpha  occ. eigenvalues --   -0.68724  -0.63731  -0.63406  -0.61839  -0.60707
 Alpha  occ. eigenvalues --   -0.56984  -0.55978  -0.52498  -0.50886  -0.50767
 Alpha  occ. eigenvalues --   -0.49670  -0.48163  -0.47364  -0.45910  -0.44948
 Alpha  occ. eigenvalues --   -0.43845  -0.43498  -0.42925  -0.42129  -0.39707
 Alpha  occ. eigenvalues --   -0.39116  -0.37891  -0.37738  -0.36518  -0.36169
 Alpha  occ. eigenvalues --   -0.34537  -0.34005  -0.33310  -0.27249  -0.27186
 Alpha  occ. eigenvalues --   -0.24543  -0.23474
 Alpha virt. eigenvalues --   -0.01142  -0.01043   0.00315   0.00517   0.04992
 Alpha virt. eigenvalues --    0.05018   0.06990   0.07288   0.07728   0.09152
 Alpha virt. eigenvalues --    0.09361   0.09999   0.11019   0.11231   0.11998

 Mulliken charges:
               1
     1  C   -0.003779
     2  H    0.080295
     3  H    0.110796
     4  C   -0.003779
     5  H    0.080295
     6  H    0.110796
     7  O   -0.246757
     8  O   -0.246757
     9  C    0.259216
    10  C   -0.169489
    11  C   -0.203017
    12  C   -0.153654
    13  C   -0.090419
    14  C   -0.131199
    15  H    0.100563
    16  H    0.104057
    17  H    0.115751
    18  H    0.113080
    19  H    0.114557
    20  C    0.259216
    21  C   -0.169489
    22  C   -0.203017
    23  C   -0.153654
    24  C   -0.090419
    25  C   -0.131199
    26  H    0.100563
    27  H    0.104057
    28  H    0.115751
    29  H    0.113080
    30  H    0.114557
 Sum of Mulliken charges =   0.00000

 Dipole moment (field-independent basis, Debye):
    X=              0.0000    Y=              0.0000    Z=              0.0000  Tot=              0.0000
 Quadrupole moment (field-independent basis, Debye-Ang):
   XX=            -88.3570   YY=            -98.5593   ZZ=            -88.0618
   XY=              2.2235   XZ=             -2.1527   YZ=              3.4115

 Summary of Natural Population Analysis:

                                       Natural Population
                Natural  -----------------------------------------------
    Atom  No    Charge         Core      Valence    Rydberg      Total
 -----------------------------------------------------------------------
      C    1   -0.10989      1.99923     4.09271    0.01795     6.10989
      H    2    0.18078      0.00000     0.81625    0.00297     0.81922
      H    3    0.20296      0.00000     0.79486    0.00218     0.79704
      C    4   -0.10989      1.99923     4.09271    0.01795     6.10989
      H    5    0.18078      0.00000     0.81625    0.00297     0.81922
      H    6    0.20296      0.00000     0.79486    0.00218     0.79704
      O    7   -0.44922      1.99973     6.42672    0.02276     8.44922
      O    8   -0.44922      1.99973     6.42672    0.02276     8.44922
      C    9    0.28216      1.99873     3.69740    0.02170     5.71784
      C   10   -0.31406      1.99904     4.29572    0.01931     6.31406
      C   11   -0.25915      1.99908     4.24016    0.01991     6.25915
      C   12   -0.18978      1.99921     4.17105    0.01952     6.18978
      C   13   -0.19226      1.99920     4.17419    0.01887     6.19226
      C   14   -0.24956      1.99918     4.23056    0.01982     6.24956
      H   15    0.21998      0.00000     0.77789    0.00213     0.78002
      H   16    0.22707      0.00000     0.77124    0.00170     0.77293
      H   17    0.21627      0.00000     0.78216    0.00157     0.78373
      H   18    0.21699      0.00000     0.78149    0.00151     0.78301
      H   19    0.21770      0.00000     0.78081    0.00149     0.78230
      C   20    0.28216      1.99873     3.69740    0.02170     5.71784
      C   21   -0.31406      1.99904     4.29572    0.01931     6.31406
      C   22   -0.25915      1.99908     4.24016    0.01991     6.25915
      C   23   -0.18978      1.99921     4.17105    0.01952     6.18978
      C   24   -0.19226      1.99920     4.17419    0.01887     6.19226
      C   25   -0.24956      1.99918     4.23056    0.01982     6.24956
      H   26    0.21998      0.00000     0.77789    0.00213     0.78002
      H   27    0.22707      0.00000     0.77124    0.00170     0.77293
      H   28    0.21627      0.00000     0.78216    0.00157     0.78373
      H   29    0.21699      0.00000     0.78149    0.00151     0.78301
      H   30    0.21770      0.00000     0.78081    0.00149     0.78230
 =======================================================================
   * Total *    0.00000     31.98682    81.66641    0.34678   114.00000

 Normal termination of Gaussian 09 at Fri May 17 10:23:21 2024.
