 Gaussian 09, Revision D.01,
 Gaussian 09:  EM64L-G09RevD.01 24-Apr-2013

 --------------------------
 #P PBE1PBE/GEN pop=nboread
 --------------------------

 ---
 c2h
 ---
 Symbolic Z-matrix:
 Charge =  0 Multiplicity = 1

                         Standard orientation:
 ---------------------------------------------------------------------
 Center     Atomic      Atomic             Coordinates (Angstroms)
 Number     Number       Type             X           Y           Z
 ---------------------------------------------------------------------
      1          6           0        0.450822    2.168875   -0.663184
      2          1           0        0.590156    3.135740   -1.156281
      3          1           0        0.059374    1.472299   -1.408385
      4          6           0       -0.516698    2.373025    0.483758
      5          1           0       -0.026218    2.976733    1.249023
      6          1           0       -1.397685    2.924333    0.133823
      7          8           0        1.727925    1.778154   -0.214655
      8          8           0       -0.889176    1.183138    1.141079
      9          6           0        2.090279    0.468855   -0.200545
     10          6           0        1.266474   -0.596182   -0.544469
     11          6           0        3.404842    0.224835    0.191339
     12          6           0        1.767230   -1.890689   -0.496049
     13          6           0        3.887711   -1.069091    0.237063
     14          6           0        3.072400   -2.139624   -0.108624
     15          1           0        0.233978   -0.447434   -0.827201
     16          1           0        4.029977    1.069202    0.455875
     17          1           0        1.111241   -2.712506   -0.760172
     18          1           0        4.912682   -1.242632    0.544877
     19          1           0        3.451027   -3.153749   -0.071637
     20          6           0       -1.791707    0.357937    0.558954
     21          6           0       -2.000400   -0.856384    1.210597
     22          6           0       -2.491590    0.640626   -0.609803
     23          6           0       -2.901726   -1.770292    0.701779
     24          6           0       -3.395612   -0.290084   -1.109464
     25          6           0       -3.607500   -1.494943   -0.464250
     26          1           0       -1.434916   -1.059957    2.111625
     27          1           0       -2.346206    1.571819   -1.140528
     28          1           0       -3.053216   -2.710845    1.219064
     29          1           0       -3.935899   -0.059789   -2.020725
     30          1           0       -4.311436   -2.214725   -0.863367
 ---------------------------------------------------------------------

 SCF Done:  E(RPBE1PBE) =  -691.791347742     A.U. after   16 cycles

 The electronic state is 1-A.
 Alpha  occ. eigenvalues --  -19.24521 -19.23948 -10.29105 -10.28655 -10.28580
 Alpha  occ. eigenvalues --  -10.28259 -10.23329 -10.23116 -10.23073 -10.22426
 Alpha  occ. eigenvalues --  -10.22326 -10.22205 -10.22191 -10.21756 -10.21567
 Alpha  occ. eigenvalues --  -10.21334  -1.11408  -1.09864  -0.88804  -0.87814
 Alpha  occ. eigenvalues --   -0.81548  -0.77870  -0.77465  -0.76700  -0.74467
 Alpha  occ. eigenvalues --   -0.68600  -0.63715  -0.62889  -0.61954  -0.60018
 Alpha  occ. eigenvalues --   -0.56693  -0.55445  -0.51712  -0.51441  -0.50269
 Alpha  occ. eigenvalues --   -0.49472  -0.48908  -0.46429  -0.45778  -0.44308
 Alpha  occ. eigenvalues --   -0.43531  -0.43206  -0.42959  -0.41837  -0.39685
 Alpha  occ. eigenvalues --   -0.38269  -0.37981  -0.36987  -0.36713  -0.35823
 Alpha  occ. eigenvalues --   -0.34259  -0.33632  -0.32979  -0.27456  -0.26304
 Alpha  occ. eigenvalues --   -0.24328  -0.22974
 Alpha virt. eigenvalues --   -0.01408  -0.00345   0.00288   0.01306   0.04440
 Alpha virt. eigenvalues --    0.06368   0.06475   0.07737   0.08698   0.09225
 Alpha virt. eigenvalues --    0.09654   0.10428   0.10496   0.10987   0.11649

 Mulliken charges:
               1
     1  C   -0.033037
     2  H    0.101429
     3  H    0.080114
     4  C    0.021536
     5  H    0.103387
     6  H    0.073965
     7  O   -0.245650
     8  O   -0.237384
     9  C    0.251025
    10  C   -0.109054
    11  C   -0.191771
    12  C   -0.176801
    13  C   -0.101919
    14  C   -0.122451
    15  H    0.091750
    16  H    0.100681
    17  H    0.113713
    18  H    0.109802
    19  H    0.111460
    20  C    0.212581
    21  C   -0.183024
    22  C   -0.148078
    23  C   -0.090208
    24  C   -0.150591
    25  C   -0.131292
    26  H    0.109959
    27  H    0.093744
    28  H    0.115238
    29  H    0.115800
    30  H    0.115077
 Sum of Mulliken charges =   0.00000

 Dipole moment (field-independent basis, Debye):
    X=             -1.2458    Y=              0.8913    Z=             -0.9548  Tot=              1.8051
 Quadrupole moment (field-independent basis, Debye-Ang):
   XX=            -93.4661   YY=            -83.5481   ZZ=            -95.1374
   XY=             -0.1873   XZ=              5.2678   YZ=             -2.9858

 Summary of Natural Population Analysis:

                                       Natural Population
                Natural  -----------------------------------------------
    Atom  No    Charge         Core      Valence    Rydberg      Total
 -----------------------------------------------------------------------
      C    1   -0.11731      1.99922     4.09942    0.01867     6.11731
      H    2    0.19930      0.00000     0.79867    0.00203     0.80070
      H    3    0.18999      0.00000     0.80692    0.00309     0.81001
      C    4   -0.11235      1.99922     4.09430    0.01883     6.11235
      H    5    0.20974      0.00000     0.78828    0.00198     0.79026
      H    6    0.17946      0.00000     0.81786    0.00267     0.82054
      O    7   -0.45574      1.99973     6.43272    0.02329     8.45574
      O    8   -0.44917      1.99974     6.42484    0.02459     8.44917
      C    9    0.28477      1.99872     3.69272    0.02378     5.71523
      C   10   -0.30471      1.99903     4.28703    0.01865     6.30471
      C   11   -0.26068      1.99908     4.24242    0.01918     6.26068
      C   12   -0.18854      1.99921     4.17068    0.01866     6.18854
      C   13   -0.19508      1.99920     4.17734    0.01854     6.19508
      C   14   -0.25170      1.99918     4.23308    0.01944     6.25170
      H   15    0.22542      0.00000     0.77224    0.00234     0.77458
      H   16    0.22492      0.00000     0.77340    0.00167     0.77508
      H   17    0.21604      0.00000     0.78240    0.00157     0.78396
      H   18    0.21526      0.00000     0.78330    0.00144     0.78474
      H   19    0.21585      0.00000     0.78271    0.00144     0.78415
      C   20    0.28004      1.99873     3.69667    0.02457     5.71996
      C   21   -0.25605      1.99908     4.23720    0.01977     6.25605
      C   22   -0.32063      1.99905     4.30275    0.01883     6.32063
      C   23   -0.19155      1.99920     4.17383    0.01852     6.19155
      C   24   -0.19082      1.99921     4.17243    0.01918     6.19082
      C   25   -0.24941      1.99918     4.23085    0.01938     6.24941
      H   26    0.23226      0.00000     0.76610    0.00164     0.76774
      H   27    0.21771      0.00000     0.78012    0.00217     0.78229
      H   28    0.21810      0.00000     0.78049    0.00141     0.78190
      H   29    0.21651      0.00000     0.78199    0.00149     0.78349
      H   30    0.21837      0.00000     0.78023    0.00140     0.78163
 =======================================================================
   * Total *    0.00000     31.98678    81.66301    0.35021   114.00000

 Error termination via Lnk1e at Fri May 17 10:26:53 2024.
 Normal termination of Gaussian 09 at Fri May 17 10:26:46 2024.
