 Gaussian 09, Revision D.01,
 Gaussian 09:  EM64L-G09RevD.01 24-Apr-2013

 --------------------------
 #P PBE1PBE/GEN pop=nboread
 --------------------------

 ---
 c2h
 ---
 Symbolic Z-matrix:
 Charge =  0 Multiplicity = 1

                         Standard orientation:
 ---------------------------------------------------------------------
 Center     Atomic      Atomic             Coordinates (Angstroms)
 Number     Number       Type             X           Y           Z
 ---------------------------------------------------------------------
      1          6           0        0.683010    0.334339   -1.609285
      2          1           0        1.217550    0.055782   -2.518421
      3          1           0        1.286858    0.004421   -0.758976
      4          6           0       -0.683010   -0.334339   -1.609285
      5          1           0       -1.286858   -0.004421   -0.758976
      6          1           0       -1.217550   -0.055782   -2.518421
      7          8           0        0.551468    1.737106   -1.654967
      8          8           0       -0.551468   -1.737106   -1.654967
      9          6           0        0.279915    2.421794   -0.514245
     10          6           0        0.369641    1.893421    0.768902
     11          6           0       -0.086171    3.754785   -0.686411
     12          6           0        0.087592    2.700949    1.863811
     13          6           0       -0.361533    4.546040    0.412339
     14          6           0       -0.279915    4.024613    1.697901
     15          1           0        0.668693    0.867220    0.932791
     16          1           0       -0.147288    4.147398   -1.694251
     17          1           0        0.162033    2.278860    2.859724
     18          1           0       -0.645573    5.581535    0.263055
     19          1           0       -0.499035    4.645539    2.557746
     20          6           0       -0.279915   -2.421794   -0.514245
     21          6           0       -0.369641   -1.893421    0.768902
     22          6           0        0.086171   -3.754785   -0.686411
     23          6           0       -0.087592   -2.700949    1.863811
     24          6           0        0.361533   -4.546040    0.412339
     25          6           0        0.279915   -4.024613    1.697901
     26          1           0       -0.668693   -0.867220    0.932791
     27          1           0        0.147288   -4.147398   -1.694251
     28          1           0       -0.162033   -2.278860    2.859724
     29          1           0        0.645573   -5.581535    0.263055
     30          1           0        0.499035   -4.645539    2.557746
 ---------------------------------------------------------------------

 SCF Done:  E(RPBE1PBE) =  -691.791552283     A.U. after   15 cycles

 The electronic state is 1-A.
 Alpha  occ. eigenvalues --  -19.24635 -19.24635 -10.29100 -10.29099 -10.28428
 Alpha  occ. eigenvalues --  -10.28402 -10.23232 -10.23232 -10.23074 -10.23074
 Alpha  occ. eigenvalues --  -10.22874 -10.22874 -10.22438 -10.22438 -10.22239
 Alpha  occ. eigenvalues --  -10.22239  -1.11375  -1.10551  -0.88852  -0.88575
 Alpha  occ. eigenvalues --   -0.81434  -0.78003  -0.77804  -0.77431  -0.74614
 Alpha  occ. eigenvalues --   -0.68772  -0.63880  -0.63364  -0.62064  -0.60576
 Alpha  occ. eigenvalues --   -0.56951  -0.56352  -0.51730  -0.51481  -0.50981
 Alpha  occ. eigenvalues --   -0.49560  -0.48015  -0.47424  -0.45933  -0.44644
 Alpha  occ. eigenvalues --   -0.44318  -0.43990  -0.43533  -0.41585  -0.40044
 Alpha  occ. eigenvalues --   -0.38561  -0.38010  -0.37832  -0.36803  -0.36178
 Alpha  occ. eigenvalues --   -0.34516  -0.33608  -0.33436  -0.27368  -0.27291
 Alpha  occ. eigenvalues --   -0.24721  -0.23492
 Alpha virt. eigenvalues --   -0.01305  -0.01200   0.00069   0.00419   0.04656
 Alpha virt. eigenvalues --    0.06359   0.06835   0.07138   0.07718   0.08004
 Alpha virt. eigenvalues --    0.09431   0.09895   0.10422   0.11701   0.12615

 Mulliken charges:
               1
     1  C   -0.012812
     2  H    0.103725
     3  H    0.092739
     4  C   -0.012812
     5  H    0.092739
     6  H    0.103725
     7  O   -0.248152
     8  O   -0.248152
     9  C    0.238584
    10  C   -0.163104
    11  C   -0.189674
    12  C   -0.152893
    13  C   -0.095362
    14  C   -0.126426
    15  H    0.104091
    16  H    0.106105
    17  H    0.114887
    18  H    0.113522
    19  H    0.114769
    20  C    0.238584
    21  C   -0.163104
    22  C   -0.189674
    23  C   -0.152893
    24  C   -0.095362
    25  C   -0.126426
    26  H    0.104091
    27  H    0.106105
    28  H    0.114887
    29  H    0.113522
    30  H    0.114769
 Sum of Mulliken charges =   0.00000

 Dipole moment (field-independent basis, Debye):
    X=              0.0000    Y=              0.0000    Z=              0.5884  Tot=              0.5884
 Quadrupole moment (field-independent basis, Debye-Ang):
   XX=            -98.5110   YY=            -89.7456   ZZ=            -88.3625
   XY=             -5.2347   XZ=              0.0000   YZ=              0.0000

 Summary of Natural Population Analysis:

                                       Natural Population
                Natural  -----------------------------------------------
    Atom  No    Charge         Core      Valence    Rydberg      Total
 -----------------------------------------------------------------------
      C    1   -0.10718      1.99922     4.08980    0.01815     6.10718
      H    2    0.20180      0.00000     0.79619    0.00201     0.79820
      H    3    0.18077      0.00000     0.81615    0.00309     0.81923
      C    4   -0.10718      1.99922     4.08980    0.01815     6.10718
      H    5    0.18077      0.00000     0.81615    0.00309     0.81923
      H    6    0.20180      0.00000     0.79619    0.00201     0.79820
      O    7   -0.45005      1.99973     6.42722    0.02309     8.45005
      O    8   -0.45005      1.99973     6.42722    0.02309     8.45005
      C    9    0.28251      1.99873     3.69722    0.02154     5.71749
      C   10   -0.31635      1.99902     4.29766    0.01968     6.31635
      C   11   -0.25858      1.99908     4.23994    0.01956     6.25858
      C   12   -0.18957      1.99921     4.17149    0.01887     6.18957
      C   13   -0.19140      1.99920     4.17357    0.01863     6.19140
      C   14   -0.24914      1.99918     4.23036    0.01960     6.24914
      H   15    0.21875      0.00000     0.77847    0.00278     0.78125
      H   16    0.22747      0.00000     0.77083    0.00169     0.77253
      H   17    0.21572      0.00000     0.78270    0.00158     0.78428
      H   18    0.21737      0.00000     0.78119    0.00144     0.78263
      H   19    0.21790      0.00000     0.78061    0.00148     0.78210
      C   20    0.28251      1.99873     3.69722    0.02154     5.71749
      C   21   -0.31635      1.99902     4.29766    0.01968     6.31635
      C   22   -0.25858      1.99908     4.23994    0.01956     6.25858
      C   23   -0.18957      1.99921     4.17149    0.01887     6.18957
      C   24   -0.19140      1.99920     4.17357    0.01863     6.19140
      C   25   -0.24914      1.99918     4.23036    0.01960     6.24914
      H   26    0.21875      0.00000     0.77847    0.00278     0.78125
      H   27    0.22747      0.00000     0.77083    0.00169     0.77253
      H   28    0.21572      0.00000     0.78270    0.00158     0.78428
      H   29    0.21737      0.00000     0.78119    0.00144     0.78263
      H   30    0.21790      0.00000     0.78061    0.00148     0.78210
 =======================================================================
   * Total *    0.00000     31.98677    81.66685    0.34639   114.00000

 Error termination via Lnk1e at Fri May 17 10:23:38 2024.
 Normal termination of Gaussian 09 at Fri May 17 10:23:38 2024.
