 Gaussian 09, Revision D.01,
 Gaussian 09:  EM64L-G09RevD.01 24-Apr-2013

 --------------------------
 #P PBE1PBE/GEN pop=nboread
 --------------------------

 ---
 H12
 ---
 Symbolic Z-matrix:
 Charge =  0 Multiplicity = 1

                         Standard orientation:
 ---------------------------------------------------------------------
 Center     Atomic      Atomic             Coordinates (Angstroms)
 Number     Number       Type             X           Y           Z
 ---------------------------------------------------------------------
      1          6           0        0.666609    0.353094    0.000197
      2          1           0        0.754837    0.985412    0.890415
      3          1           0        0.750570    0.992451   -0.885632
      4          6           0       -0.666609   -0.353344   -0.000167
      5          1           0       -0.754341   -0.986573   -0.889792
      6          1           0       -0.751249   -0.991774    0.886260
      7          8           0        1.650955   -0.650840   -0.005590
      8          8           0       -1.650900    0.650682    0.003996
      9          6           0        2.950876   -0.267865   -0.002835
     10          6           0        3.890135   -1.296815   -0.001544
     11          6           0        3.372556    1.057034   -0.001536
     12          6           0        5.238953   -0.999120    0.001476
     13          6           0        4.733668    1.339381    0.001059
     14          6           0        5.671615    0.322509    0.002794
     15          1           0        3.537296   -2.320512   -0.003196
     16          1           0        2.658456    1.868491   -0.003838
     17          1           0        5.961133   -1.806694    0.002681
     18          1           0        5.055706    2.373973    0.002012
     19          1           0        6.729244    0.552912    0.004299
     20          6           0       -2.950856    0.267820    0.002230
     21          6           0       -3.890022    1.296855   -0.000294
     22          6           0       -3.372654   -1.057043    0.002960
     23          6           0       -5.238867    0.999274   -0.002444
     24          6           0       -4.733793   -1.339272    0.001246
     25          6           0       -5.671645   -0.322316   -0.001656
     26          1           0       -3.537066    2.320515   -0.000279
     27          1           0       -2.658606   -1.868538    0.006101
     28          1           0       -5.960981    1.806904   -0.004621
     29          1           0       -5.055936   -2.373835    0.001898
     30          1           0       -6.729295   -0.552623   -0.002462
 ---------------------------------------------------------------------

 SCF Done:  E(RPBE1PBE) =  -691.797003401     A.U. after   18 cycles

 The electronic state is 1-A.
 Alpha  occ. eigenvalues --  -19.24753 -19.24753 -10.28911 -10.28911 -10.28570
 Alpha  occ. eigenvalues --  -10.28543 -10.22996 -10.22996 -10.22908 -10.22908
 Alpha  occ. eigenvalues --  -10.22684 -10.22684 -10.22344 -10.22344 -10.22073
 Alpha  occ. eigenvalues --  -10.22073  -1.11685  -1.10859  -0.88789  -0.88373
 Alpha  occ. eigenvalues --   -0.82039  -0.77849  -0.77572  -0.77085  -0.74215
 Alpha  occ. eigenvalues --   -0.68299  -0.63703  -0.63212  -0.61150  -0.61043
 Alpha  occ. eigenvalues --   -0.57431  -0.55095  -0.53312  -0.51135  -0.50765
 Alpha  occ. eigenvalues --   -0.49506  -0.48502  -0.47080  -0.46259  -0.45653
 Alpha  occ. eigenvalues --   -0.43982  -0.43786  -0.42611  -0.40916  -0.39481
 Alpha  occ. eigenvalues --   -0.38621  -0.37881  -0.37772  -0.37080  -0.34783
 Alpha  occ. eigenvalues --   -0.34541  -0.34370  -0.33725  -0.27148  -0.27113
 Alpha  occ. eigenvalues --   -0.24259  -0.23849
 Alpha virt. eigenvalues --   -0.01050  -0.00930   0.00479   0.00684   0.04775
 Alpha virt. eigenvalues --    0.05527   0.06226   0.07335   0.07967   0.09042
 Alpha virt. eigenvalues --    0.09745   0.09935   0.10094   0.11036   0.12276

 Mulliken charges:
               1
     1  C   -0.001202
     2  H    0.089478
     3  H    0.089194
     4  C   -0.001198
     5  H    0.089520
     6  H    0.089154
     7  O   -0.237147
     8  O   -0.237145
     9  C    0.252827
    10  C   -0.195343
    11  C   -0.155171
    12  C   -0.094737
    13  C   -0.162454
    14  C   -0.125673
    15  H    0.102503
    16  H    0.096134
    17  H    0.112909
    18  H    0.114397
    19  H    0.114283
    20  C    0.252819
    21  C   -0.195337
    22  C   -0.155173
    23  C   -0.094741
    24  C   -0.162448
    25  C   -0.125671
    26  H    0.102504
    27  H    0.096130
    28  H    0.112909
    29  H    0.114397
    30  H    0.114282
 Sum of Mulliken charges =   0.00000

 Dipole moment (field-independent basis, Debye):
    X=              0.0000    Y=             -0.0001    Z=              0.0016  Tot=              0.0016
 Quadrupole moment (field-independent basis, Debye-Ang):
   XX=            -87.9153   YY=            -86.2449   ZZ=            -99.8427
   XY=              1.5623   XZ=              0.0261   YZ=             -0.0222

 Summary of Natural Population Analysis:

                                       Natural Population
                Natural  -----------------------------------------------
    Atom  No    Charge         Core      Valence    Rydberg      Total
 -----------------------------------------------------------------------
      C    1   -0.09243      1.99924     4.07593    0.01726     6.09243
      H    2    0.17995      0.00000     0.81752    0.00253     0.82005
      H    3    0.17978      0.00000     0.81770    0.00252     0.82022
      C    4   -0.09242      1.99924     4.07593    0.01726     6.09242
      H    5    0.17997      0.00000     0.81751    0.00253     0.82003
      H    6    0.17976      0.00000     0.81772    0.00252     0.82024
      O    7   -0.45019      1.99971     6.42742    0.02305     8.45019
      O    8   -0.45020      1.99971     6.42743    0.02305     8.45020
      C    9    0.28498      1.99875     3.69506    0.02120     5.71502
      C   10   -0.25788      1.99908     4.23911    0.01968     6.25788
      C   11   -0.31033      1.99905     4.29237    0.01891     6.31033
      C   12   -0.19358      1.99921     4.17547    0.01890     6.19358
      C   13   -0.19028      1.99921     4.17165    0.01942     6.19028
      C   14   -0.24853      1.99918     4.22961    0.01974     6.24853
      H   15    0.22629      0.00000     0.77200    0.00171     0.77371
      H   16    0.22227      0.00000     0.77580    0.00193     0.77773
      H   17    0.21673      0.00000     0.78175    0.00151     0.78327
      H   18    0.21592      0.00000     0.78251    0.00158     0.78408
      H   19    0.21730      0.00000     0.78122    0.00148     0.78270
      C   20    0.28499      1.99875     3.69506    0.02120     5.71501
      C   21   -0.25788      1.99908     4.23911    0.01968     6.25788
      C   22   -0.31033      1.99905     4.29237    0.01891     6.31033
      C   23   -0.19358      1.99921     4.17547    0.01890     6.19358
      C   24   -0.19028      1.99921     4.17165    0.01942     6.19028
      C   25   -0.24853      1.99918     4.22961    0.01974     6.24853
      H   26    0.22629      0.00000     0.77200    0.00171     0.77371
      H   27    0.22226      0.00000     0.77580    0.00193     0.77774
      H   28    0.21673      0.00000     0.78175    0.00151     0.78327
      H   29    0.21592      0.00000     0.78251    0.00158     0.78408
      H   30    0.21729      0.00000     0.78122    0.00148     0.78271
 =======================================================================
   * Total *    0.00000     31.98688    81.67028    0.34284   114.00000

 Normal termination of Gaussian 09 at Fri May 17 10:30:18 2024.
