 Gaussian 09, Revision D.01,
 Gaussian 09:  EM64L-G09RevD.01 24-Apr-2013

 --------------------------
 #P PBE1PBE/GEN pop=nboread
 --------------------------

 ---
 c2h
 ---
 Symbolic Z-matrix:
 Charge =  0 Multiplicity = 1

                         Standard orientation:
 ---------------------------------------------------------------------
 Center     Atomic      Atomic             Coordinates (Angstroms)
 Number     Number       Type             X           Y           Z
 ---------------------------------------------------------------------
      1          6           0       -0.718690    1.720980    0.166504
      2          1           0       -0.423084    2.753673   -0.022965
      3          1           0       -0.835469    1.601256    1.248018
      4          6           0        0.346029    0.779594   -0.358667
      5          1           0        0.018430   -0.262517   -0.267068
      6          1           0        0.531482    0.986724   -1.419319
      7          8           0       -1.938025    1.536310   -0.512680
      8          8           0        1.500401    1.011686    0.410938
      9          6           0       -2.746010    0.505944   -0.152896
     10          6           0       -3.915902    0.373668   -0.897456
     11          6           0       -2.485131   -0.383213    0.884426
     12          6           0       -4.813837   -0.634587   -0.604672
     13          6           0       -3.398753   -1.391281    1.167071
     14          6           0       -4.562612   -1.526363    0.431217
     15          1           0       -4.099521    1.077926   -1.699924
     16          1           0       -1.582321   -0.308140    1.475763
     17          1           0       -5.720879   -0.724712   -1.191499
     18          1           0       -3.185658   -2.079446    1.977207
     19          1           0       -5.267079   -2.316882    0.658676
     20          6           0        2.612033    0.288654    0.129620
     21          6           0        2.682965   -0.673223   -0.871462
     22          6           0        3.729505    0.556470    0.916998
     23          6           0        3.874275   -1.359823   -1.074382
     24          6           0        4.905986   -0.134626    0.702194
     25          6           0        4.987719   -1.099027   -0.295931
     26          1           0        1.825778   -0.895074   -1.492849
     27          1           0        3.650376    1.310826    1.690565
     28          1           0        3.922131   -2.108839   -1.856667
     29          1           0        5.769734    0.081517    1.320593
     30          1           0        5.911618   -1.639288   -0.461979
 ---------------------------------------------------------------------

 SCF Done:  E(RPBE1PBE) =  -691.794683983     A.U. after   13 cycles

 The electronic state is 1-A.
 Alpha  occ. eigenvalues --  -19.24778 -19.24666 -10.29014 -10.28923 -10.28512
 Alpha  occ. eigenvalues --  -10.28463 -10.23079 -10.23018 -10.22957 -10.22933
 Alpha  occ. eigenvalues --  -10.22806 -10.22704 -10.22371 -10.22345 -10.22117
 Alpha  occ. eigenvalues --  -10.22101  -1.11569  -1.10718  -0.88761  -0.88446
 Alpha  occ. eigenvalues --   -0.81726  -0.77886  -0.77598  -0.77283  -0.74383
 Alpha  occ. eigenvalues --   -0.68506  -0.63677  -0.63344  -0.61593  -0.60763
 Alpha  occ. eigenvalues --   -0.57222  -0.55626  -0.52312  -0.51300  -0.50711
 Alpha  occ. eigenvalues --   -0.49257  -0.49093  -0.46910  -0.46020  -0.45380
 Alpha  occ. eigenvalues --   -0.44031  -0.43731  -0.43131  -0.40850  -0.39972
 Alpha  occ. eigenvalues --   -0.38584  -0.38049  -0.37599  -0.37099  -0.34963
 Alpha  occ. eigenvalues --   -0.34482  -0.33980  -0.33897  -0.27208  -0.27141
 Alpha  occ. eigenvalues --   -0.24223  -0.23875
 Alpha virt. eigenvalues --   -0.01098  -0.00993   0.00433   0.00568   0.04734
 Alpha virt. eigenvalues --    0.05514   0.06765   0.07347   0.07682   0.08478
 Alpha virt. eigenvalues --    0.09754   0.09854   0.10810   0.11223   0.12690

 Mulliken charges:
               1
     1  C    0.029354
     2  H    0.102361
     3  H    0.077503
     4  C   -0.038709
     5  H    0.097417
     6  H    0.096742
     7  O   -0.246545
     8  O   -0.241517
     9  C    0.244182
    10  C   -0.198454
    11  C   -0.160117
    12  C   -0.092909
    13  C   -0.153263
    14  C   -0.132044
    15  H    0.105303
    16  H    0.102763
    17  H    0.113191
    18  H    0.116236
    19  H    0.114591
    20  C    0.257957
    21  C   -0.161027
    22  C   -0.201998
    23  C   -0.153613
    24  C   -0.089629
    25  C   -0.130325
    26  H    0.097418
    27  H    0.102825
    28  H    0.114905
    29  H    0.113106
    30  H    0.114296
 Sum of Mulliken charges =   0.00000

 Dipole moment (field-independent basis, Debye):
    X=              0.1500    Y=             -0.4699    Z=             -0.0459  Tot=              0.4954
 Quadrupole moment (field-independent basis, Debye-Ang):
   XX=            -90.8360   YY=            -93.0435   ZZ=            -91.8083
   XY=              1.3752   XZ=              2.1477   YZ=              1.0380

 Summary of Natural Population Analysis:

                                       Natural Population
                Natural  -----------------------------------------------
    Atom  No    Charge         Core      Valence    Rydberg      Total
 -----------------------------------------------------------------------
      C    1   -0.09376      1.99923     4.07607    0.01846     6.09376
      H    2    0.20154      0.00000     0.79635    0.00210     0.79846
      H    3    0.18084      0.00000     0.81619    0.00297     0.81916
      C    4   -0.10987      1.99924     4.09325    0.01738     6.10987
      H    5    0.18186      0.00000     0.81505    0.00309     0.81814
      H    6    0.17993      0.00000     0.81753    0.00254     0.82007
      O    7   -0.44724      1.99973     6.42485    0.02266     8.44724
      O    8   -0.45270      1.99971     6.42971    0.02328     8.45270
      C    9    0.28198      1.99873     3.69779    0.02150     5.71802
      C   10   -0.25910      1.99908     4.24019    0.01983     6.25910
      C   11   -0.31398      1.99904     4.29589    0.01906     6.31398
      C   12   -0.19258      1.99920     4.17453    0.01885     6.19258
      C   13   -0.18991      1.99921     4.17129    0.01941     6.18991
      C   14   -0.24941      1.99918     4.23045    0.01977     6.24941
      H   15    0.22728      0.00000     0.77103    0.00169     0.77272
      H   16    0.22079      0.00000     0.77713    0.00208     0.77921
      H   17    0.21695      0.00000     0.78155    0.00151     0.78305
      H   18    0.21644      0.00000     0.78199    0.00157     0.78356
      H   19    0.21765      0.00000     0.78087    0.00149     0.78235
      C   20    0.28422      1.99875     3.69575    0.02128     5.71578
      C   21   -0.30996      1.99905     4.29204    0.01888     6.30996
      C   22   -0.25805      1.99908     4.23927    0.01970     6.25805
      C   23   -0.19025      1.99921     4.17159    0.01944     6.19025
      C   24   -0.19373      1.99920     4.17561    0.01892     6.19373
      C   25   -0.24849      1.99918     4.22955    0.01976     6.24849
      H   26    0.22277      0.00000     0.77533    0.00191     0.77723
      H   27    0.22640      0.00000     0.77189    0.00171     0.77360
      H   28    0.21616      0.00000     0.78227    0.00157     0.78384
      H   29    0.21682      0.00000     0.78167    0.00151     0.78318
      H   30    0.21742      0.00000     0.78110    0.00148     0.78258
 =======================================================================
   * Total *    0.00000     31.98684    81.66779    0.34537   114.00000

 Error termination via Lnk1e at Fri May 17 10:29:25 2024.
 Normal termination of Gaussian 09 at Fri May 17 10:29:24 2024.
