 Gaussian 09, Revision D.01,
 Gaussian 09:  EM64L-G09RevD.01 24-Apr-2013

 --------------------------
 #P PBE1PBE/GEN pop=nboread
 --------------------------

 ---
 c2h
 ---
 Symbolic Z-matrix:
 Charge =  0 Multiplicity = 1

                         Standard orientation:
 ---------------------------------------------------------------------
 Center     Atomic      Atomic             Coordinates (Angstroms)
 Number     Number       Type             X           Y           Z
 ---------------------------------------------------------------------
      1          6           0        0.357538    0.970722   -1.028816
      2          1           0        0.824967    1.237028   -1.986848
      3          1           0        0.009213   -0.066477   -1.092127
      4          6           0       -0.798343    1.904946   -0.768832
      5          1           0       -0.408722    2.891923   -0.514907
      6          1           0       -1.408534    2.004339   -1.673123
      7          8           0        1.275762    1.115614    0.027023
      8          8           0       -1.583288    1.520581    0.335532
      9          6           0        2.368465    0.316374    0.037588
     10          6           0        2.674142   -0.606596   -0.956789
     11          6           0        3.219780    0.464624    1.130895
     12          6           0        3.828169   -1.373560   -0.845946
     13          6           0        4.362973   -0.304154    1.225315
     14          6           0        4.676693   -1.230653    0.236943
     15          1           0        2.028418   -0.737297   -1.814603
     16          1           0        2.959798    1.188251    1.894002
     17          1           0        4.058475   -2.091728   -1.624806
     18          1           0        5.016951   -0.180773    2.081088
     19          1           0        5.573440   -1.833065    0.314490
     20          6           0       -2.452262    0.488822    0.202854
     21          6           0       -3.099150    0.096291    1.373193
     22          6           0       -2.738505   -0.164780   -0.991770
     23          6           0       -4.021790   -0.930909    1.345764
     24          6           0       -3.669728   -1.196497   -1.003266
     25          6           0       -4.315285   -1.587170    0.155963
     26          1           0       -2.859164    0.616231    2.292700
     27          1           0       -2.251454    0.114139   -1.916406
     28          1           0       -4.517093   -1.224264    2.264375
     29          1           0       -3.885041   -1.698388   -1.939869
     30          1           0       -5.037227   -2.394250    0.137024
 ---------------------------------------------------------------------

 SCF Done:  E(RPBE1PBE) =  -691.794397579     A.U. after   19 cycles

 The electronic state is 1-A.
 Alpha  occ. eigenvalues --  -19.24312 -19.24247 -10.28827 -10.28665 -10.28635
 Alpha  occ. eigenvalues --  -10.28618 -10.22999 -10.22805 -10.22797 -10.22749
 Alpha  occ. eigenvalues --  -10.22675 -10.22501 -10.22135 -10.22062 -10.21992
 Alpha  occ. eigenvalues --  -10.21862  -1.11505  -1.10145  -0.88591  -0.88195
 Alpha  occ. eigenvalues --   -0.81758  -0.77672  -0.77430  -0.76985  -0.74553
 Alpha  occ. eigenvalues --   -0.68434  -0.63520  -0.63111  -0.62205  -0.60055
 Alpha  occ. eigenvalues --   -0.57064  -0.55277  -0.52475  -0.50912  -0.50565
 Alpha  occ. eigenvalues --   -0.49459  -0.48245  -0.46994  -0.45950  -0.45047
 Alpha  occ. eigenvalues --   -0.43902  -0.43524  -0.42958  -0.40639  -0.39565
 Alpha  occ. eigenvalues --   -0.38952  -0.37918  -0.37347  -0.37061  -0.34963
 Alpha  occ. eigenvalues --   -0.34378  -0.33789  -0.33495  -0.27080  -0.26914
 Alpha  occ. eigenvalues --   -0.23998  -0.23590
 Alpha virt. eigenvalues --   -0.00977  -0.00786   0.00534   0.00832   0.03957
 Alpha virt. eigenvalues --    0.06061   0.06420   0.07783   0.08404   0.09411
 Alpha virt. eigenvalues --    0.09807   0.10090   0.10732   0.11177   0.11703

 Mulliken charges:
               1
     1  C   -0.014913
     2  H    0.087133
     3  H    0.092440
     4  C    0.011354
     5  H    0.100883
     6  H    0.076625
     7  O   -0.228915
     8  O   -0.238509
     9  C    0.258828
    10  C   -0.163500
    11  C   -0.202860
    12  C   -0.152943
    13  C   -0.087353
    14  C   -0.131886
    15  H    0.090972
    16  H    0.104764
    17  H    0.112951
    18  H    0.112439
    19  H    0.113194
    20  C    0.259236
    21  C   -0.197150
    22  C   -0.164369
    23  C   -0.092670
    24  C   -0.152721
    25  C   -0.130799
    26  H    0.107134
    27  H    0.090451
    28  H    0.112858
    29  H    0.113551
    30  H    0.113774
 Sum of Mulliken charges =   0.00000

 Dipole moment (field-independent basis, Debye):
    X=             -0.0943    Y=             -0.1535    Z=             -1.7749  Tot=              1.7840
 Quadrupole moment (field-independent basis, Debye-Ang):
   XX=            -93.9160   YY=            -92.8629   ZZ=            -85.8338
   XY=              0.9851   XZ=              1.4693   YZ=              0.1614

 Summary of Natural Population Analysis:

                                       Natural Population
                Natural  -----------------------------------------------
    Atom  No    Charge         Core      Valence    Rydberg      Total
 -----------------------------------------------------------------------
      C    1   -0.11849      1.99924     4.10164    0.01761     6.11849
      H    2    0.17910      0.00000     0.81815    0.00274     0.82090
      H    3    0.18988      0.00000     0.80690    0.00322     0.81012
      C    4   -0.10215      1.99922     4.08393    0.01901     6.10215
      H    5    0.21090      0.00000     0.78707    0.00203     0.78910
      H    6    0.18122      0.00000     0.81634    0.00243     0.81878
      O    7   -0.44749      1.99972     6.42341    0.02436     8.44749
      O    8   -0.44254      1.99973     6.41959    0.02322     8.44254
      C    9    0.28536      1.99875     3.69455    0.02133     5.71464
      C   10   -0.31164      1.99905     4.29379    0.01880     6.31164
      C   11   -0.25628      1.99908     4.23749    0.01971     6.25628
      C   12   -0.19108      1.99921     4.17237    0.01949     6.19108
      C   13   -0.19369      1.99920     4.17558    0.01891     6.19369
      C   14   -0.24960      1.99918     4.23060    0.01981     6.24960
      H   15    0.21926      0.00000     0.77878    0.00196     0.78074
      H   16    0.22753      0.00000     0.77076    0.00170     0.77247
      H   17    0.21509      0.00000     0.78333    0.00158     0.78491
      H   18    0.21646      0.00000     0.78202    0.00151     0.78354
      H   19    0.21688      0.00000     0.78164    0.00149     0.78312
      C   20    0.28337      1.99873     3.69627    0.02163     5.71663
      C   21   -0.25576      1.99908     4.23691    0.01977     6.25576
      C   22   -0.31596      1.99904     4.29780    0.01912     6.31596
      C   23   -0.19196      1.99920     4.17392    0.01883     6.19196
      C   24   -0.19133      1.99921     4.17260    0.01952     6.19133
      C   25   -0.24983      1.99918     4.23085    0.01980     6.24983
      H   26    0.22850      0.00000     0.76982    0.00168     0.77150
      H   27    0.21487      0.00000     0.78289    0.00225     0.78513
      H   28    0.21693      0.00000     0.78155    0.00151     0.78307
      H   29    0.21509      0.00000     0.78332    0.00159     0.78491
      H   30    0.21734      0.00000     0.78117    0.00149     0.78266
 =======================================================================
   * Total *    0.00000     31.98684    81.66505    0.34811   114.00000

 Normal termination of Gaussian 09 at Fri May 17 10:33:33 2024.
