                               Psi4 1.7 release

  ==> Input File <==

--------------------------------------------------------------------------
memory 12000 MiB
mol = psi4.core.Molecule.from_arrays(
    elez=[8,6,6,6,6,6,6,1,1,1,1,1,8,6,6,6,6,6,6,1,1,1,1,1,6,1,1,6,1,1],
    fragment_separators=[12, 24],
    fix_com=True,
    fix_orientation=True,
    fix_symmetry='c1',
    fragment_multiplicities=[2, 2, 1],
    molecular_charge=0,
    molecular_multiplicity=1,
    geom= [
       -0.928570740,      0.618884176,      0.023143976,
       -2.078485090,      0.014950567,     -0.361781838,
       -2.947072497,      0.525857242,     -1.319283514,
       -2.372606554,     -1.190596926,      0.271241017,
       -4.103709829,     -0.177126392,     -1.635378375,
       -3.526886195,     -1.875785600,     -0.053147503,
       -4.401749482,     -1.374449847,     -1.010390526,
       -2.738241953,      1.461299076,     -1.818921308,
       -1.676869860,     -1.572276620,      1.008200814,
       -4.775917889,      0.226384420,     -2.383430559,
       -3.744654008,     -2.813944656,      0.442585118,
       -5.304440566,     -1.915022771,     -1.264315629,

        1.864548970,      1.377701888,     -0.638882842,
        2.406199879,      0.409771805,      0.146163061,
        3.608179496,     -0.123664461,     -0.312734840,
        1.845808775,     -0.065306746,      1.326288922,
        4.245688227,     -1.117694043,      0.405560659,
        2.503568897,     -1.057798661,      2.041441491,
        3.700767308,     -1.589498576,      1.593065181,
        4.023834346,      0.258583103,     -1.236209365,
        0.889696390,      0.298693905,      1.671163396,
        5.180153584,     -1.523207559,      0.037248407,
        2.058738059,     -1.423521012,      2.959168567,
        4.201681584,     -2.365956284,      2.157077410,

       -0.529131838,      1.789086451,     -0.647514402,
       -0.481650980,      1.614043885,     -1.728127383,
       -1.240623298,      2.603613024,     -0.457629369,
        0.831833634,      2.203334054,     -0.150889795,
        1.038160873,      3.204305261,     -0.538698478,
        0.847682060,      2.256434651,      0.940572227])
activate(mol)

set {
basis jun-cc-pvdz
scf_type df
guess sad
freeze_core true
fisapt_do_plot true
}
energy('fisapt0')
--------------------------------------------------------------------------

    Molecular point group: c1

    Geometry (in Angstrom), charge = 0, multiplicity = 1:

       Center              X                  Y                   Z               Mass
    ------------   -----------------  -----------------  -----------------  -----------------
         O           -0.928570740000     0.618884176000     0.023143976000    15.994914619570
         C           -2.078485090000     0.014950567000    -0.361781838000    12.000000000000
         C           -2.947072497000     0.525857242000    -1.319283514000    12.000000000000
         C           -2.372606554000    -1.190596926000     0.271241017000    12.000000000000
         C           -4.103709829000    -0.177126392000    -1.635378375000    12.000000000000
         C           -3.526886195000    -1.875785600000    -0.053147503000    12.000000000000
         C           -4.401749482000    -1.374449847000    -1.010390526000    12.000000000000
         H           -2.738241953000     1.461299076000    -1.818921308000     1.007825032230
         H           -1.676869860000    -1.572276620000     1.008200814000     1.007825032230
         H           -4.775917889000     0.226384420000    -2.383430559000     1.007825032230
         H           -3.744654008000    -2.813944656000     0.442585118000     1.007825032230
         H           -5.304440566000    -1.915022771000    -1.264315629000     1.007825032230
         O            1.864548970000     1.377701888000    -0.638882842000    15.994914619570
         C            2.406199879000     0.409771805000     0.146163061000    12.000000000000
         C            3.608179496000    -0.123664461000    -0.312734840000    12.000000000000
         C            1.845808775000    -0.065306746000     1.326288922000    12.000000000000
         C            4.245688227000    -1.117694043000     0.405560659000    12.000000000000
         C            2.503568897000    -1.057798661000     2.041441491000    12.000000000000
         C            3.700767308000    -1.589498576000     1.593065181000    12.000000000000
         H            4.023834346000     0.258583103000    -1.236209365000     1.007825032230
         H            0.889696390000     0.298693905000     1.671163396000     1.007825032230
         H            5.180153584000    -1.523207559000     0.037248407000     1.007825032230
         H            2.058738059000    -1.423521012000     2.959168567000     1.007825032230
         H            4.201681584000    -2.365956284000     2.157077410000     1.007825032230
         C           -0.529131838000     1.789086451000    -0.647514402000    12.000000000000
         H           -0.481650980000     1.614043885000    -1.728127383000     1.007825032230
         H           -1.240623298000     2.603613024000    -0.457629369000     1.007825032230
         C            0.831833634000     2.203334054000    -0.150889795000    12.000000000000
         H            1.038160873000     3.204305261000    -0.538698478000     1.007825032230
         H            0.847682060000     2.256434651000     0.940572227000     1.007825032230

  Charge       = 0
  Multiplicity = 1
  Basis Set: JUN-CC-PVDZ
    Blend: JUN-CC-PVDZ
  Basis Set: (JUN-CC-PVDZ AUX)
    Blend: JUN-CC-PVDZ-JKFIT

    Orbital Energies [Eh]
    ---------------------

    Doubly Occupied:

       1A    -20.597117     2A    -20.589168     3A    -11.308438
       4A    -11.302035     5A    -11.300913     6A    -11.300737
       7A    -11.247314     8A    -11.245646     9A    -11.239537
      10A    -11.239437    11A    -11.238519    12A    -11.234667
      13A    -11.233500    14A    -11.229195    15A    -11.227606
      16A    -11.226951    17A     -1.435554    18A     -1.416657
      19A     -1.158610    20A     -1.150423    21A     -1.064507
      22A     -1.026141    23A     -1.017873    24A     -1.014360
      25A     -0.982818    26A     -0.893161    27A     -0.838210
      28A     -0.834537    29A     -0.817000    30A     -0.797745
      31A     -0.741890    32A     -0.727493    33A     -0.686434
      34A     -0.679440    35A     -0.669614    36A     -0.660429
      37A     -0.646521    38A     -0.631291    39A     -0.614041
      40A     -0.609564    41A     -0.592148    42A     -0.587040
      43A     -0.580682    44A     -0.553798    45A     -0.535246
      46A     -0.522369    47A     -0.515403    48A     -0.514229
      49A     -0.508088    50A     -0.488448    51A     -0.477489
      52A     -0.472203    53A     -0.461087    54A     -0.344258
      55A     -0.336042    56A     -0.316704    57A     -0.308604

  @DF-RHF Final Energy:  -688.07570655425081

   => Energetics <=

    Nuclear Repulsion Energy =           1011.5396447494605354
    One-Electron Energy =               -2943.2528424168576748
    Two-Electron Energy =                1243.6374911131465524
    Total Energy =                       -688.0757065542507007
 Dipole X            :         -2.1281418            1.6247914           -0.5033504
 Dipole Y            :         10.8983016          -10.3772607            0.5210410
 Dipole Z            :          6.3747242           -6.3899007           -0.0151765
 Magnitude           :                                                    0.7246210
  Basis Set: (JUN-CC-PVDZ AUX)
    Blend: JUN-CC-PVDZ-JKFIT
  Basis Set: JUN-CC-PVDZ
    Blend: JUN-CC-PVDZ

    SAPT Results
  --------------------------------------------------------------------------------------------------------
    Electrostatics                  1.68418848 [mEh]       1.05684423 [kcal/mol]       4.42183625 [kJ/mol]
      Elst10,r                      1.68418848 [mEh]       1.05684423 [kcal/mol]       4.42183625 [kJ/mol]

    Exchange                        4.83551112 [mEh]       3.03432904 [kcal/mol]      12.69563270 [kJ/mol]
      Exch10                        4.83551112 [mEh]       3.03432904 [kcal/mol]      12.69563270 [kJ/mol]
      Exch10(S^2)                   4.82185009 [mEh]       3.02575661 [kcal/mol]      12.65976567 [kJ/mol]

    Induction                      -1.60217049 [mEh]      -1.00537716 [kcal/mol]      -4.20649805 [kJ/mol]
      Ind20,r                      -2.58376975 [mEh]      -1.62134000 [kcal/mol]      -6.78368654 [kJ/mol]
      Exch-Ind20,r                  1.46898865 [mEh]       0.92180430 [kcal/mol]       3.85682918 [kJ/mol]
      delta HF,r (2)               -0.48738940 [mEh]      -0.30584147 [kcal/mol]      -1.27964069 [kJ/mol]
      Induction (A<-B)             -0.62789170 [mEh]      -0.39400799 [kcal/mol]      -1.64852942 [kJ/mol]
      Induction (B<-A)             -0.97427880 [mEh]      -0.61136918 [kcal/mol]      -2.55796863 [kJ/mol]

    Dispersion                     -3.46575777 [mEh]      -2.17479583 [kcal/mol]      -9.09934577 [kJ/mol]
      Disp20                       -3.84210478 [mEh]      -2.41095715 [kcal/mol]     -10.08744471 [kJ/mol]
      Exch-Disp20                   0.37634701 [mEh]       0.23616131 [kcal/mol]       0.98809894 [kJ/mol]

  Total HF                          4.91752911 [mEh]       3.08579610 [kcal/mol]      12.91097090 [kJ/mol]
  Total SAPT0                       1.45177134 [mEh]       0.91100027 [kcal/mol]       3.81162513 [kJ/mol]

  --------------------------------------------------------------------------------------------------------

*** Psi4 exiting successfully. Buy a developer a beer!
