                               Psi4 1.7 release

  ==> Input File <==

--------------------------------------------------------------------------
memory 12000 MiB
mol = psi4.core.Molecule.from_arrays(
    elez=[8,6,6,6,6,6,6,1,1,1,1,1,8,6,6,6,6,6,6,1,1,1,1,1,6,1,1,6,1,1],
    fragment_separators=[12, 24],
    fix_com=True,
    fix_orientation=True,
    fix_symmetry='c1',
    fragment_multiplicities=[2, 2, 1],
    molecular_charge=0,
    molecular_multiplicity=1,
    geom= [
       -1.314653326,      0.551224497,      0.239004021,
       -2.640975091,      0.397603385,      0.016763273,
       -3.485144496,     -0.370483195,      0.811541756,
       -3.154610284,      1.073698082,     -1.088384680,
       -4.835159185,     -0.455310952,      0.491405560,
       -4.498250649,      0.979382302,     -1.392223120,
       -5.350287686,      0.213108300,     -0.604540247,
       -3.108027476,     -0.902447826,      1.673700765,
       -2.478136334,      1.663879503,     -1.693537796,
       -5.485821019,     -1.056637961,      1.115234150,
       -4.885968693,      1.507571894,     -2.255145865,
       -6.402779446,      0.139808397,     -0.846759612,

        1.314653326,     -0.551224497,      0.239004021,
        2.640975091,     -0.397603385,      0.016763273,
        3.154610284,     -1.073698082,     -1.088384680,
        3.485144496,      0.370483195,      0.811541756,
        4.498250649,     -0.979382302,     -1.392223120,
        4.835159185,      0.455310952,      0.491405560,
        5.350287686,     -0.213108300,     -0.604540247,
        2.478136334,     -1.663879503,     -1.693537796,
        3.108027476,      0.902447826,      1.673700765,
        4.885968693,     -1.507571894,     -2.255145865,
        5.485821019,      1.056637961,      1.115234150,
        6.402779446,     -0.139808397,     -0.846759612,

        0.738124486,      0.136761753,      1.321300587,
        1.167895978,     -0.208871392,      2.269604115,
        0.913184930,      1.214687260,      1.231999767,
       -0.738124486,     -0.136761753,      1.321300587,
       -0.913184930,     -1.214687260,      1.231999767,
       -1.167895978,      0.208871392,      2.269604115])
activate(mol)

set {
basis jun-cc-pvdz
scf_type df
guess sad
freeze_core true
fisapt_do_plot true
}
energy('fisapt0')
--------------------------------------------------------------------------

    Molecular point group: c1

    Geometry (in Angstrom), charge = 0, multiplicity = 1:

       Center              X                  Y                   Z               Mass
    ------------   -----------------  -----------------  -----------------  -----------------
         O           -1.314653326000     0.551224497000     0.239004021000    15.994914619570
         C           -2.640975091000     0.397603385000     0.016763273000    12.000000000000
         C           -3.485144496000    -0.370483195000     0.811541756000    12.000000000000
         C           -3.154610284000     1.073698082000    -1.088384680000    12.000000000000
         C           -4.835159185000    -0.455310952000     0.491405560000    12.000000000000
         C           -4.498250649000     0.979382302000    -1.392223120000    12.000000000000
         C           -5.350287686000     0.213108300000    -0.604540247000    12.000000000000
         H           -3.108027476000    -0.902447826000     1.673700765000     1.007825032230
         H           -2.478136334000     1.663879503000    -1.693537796000     1.007825032230
         H           -5.485821019000    -1.056637961000     1.115234150000     1.007825032230
         H           -4.885968693000     1.507571894000    -2.255145865000     1.007825032230
         H           -6.402779446000     0.139808397000    -0.846759612000     1.007825032230
         O            1.314653326000    -0.551224497000     0.239004021000    15.994914619570
         C            2.640975091000    -0.397603385000     0.016763273000    12.000000000000
         C            3.154610284000    -1.073698082000    -1.088384680000    12.000000000000
         C            3.485144496000     0.370483195000     0.811541756000    12.000000000000
         C            4.498250649000    -0.979382302000    -1.392223120000    12.000000000000
         C            4.835159185000     0.455310952000     0.491405560000    12.000000000000
         C            5.350287686000    -0.213108300000    -0.604540247000    12.000000000000
         H            2.478136334000    -1.663879503000    -1.693537796000     1.007825032230
         H            3.108027476000     0.902447826000     1.673700765000     1.007825032230
         H            4.885968693000    -1.507571894000    -2.255145865000     1.007825032230
         H            5.485821019000     1.056637961000     1.115234150000     1.007825032230
         H            6.402779446000    -0.139808397000    -0.846759612000     1.007825032230
         C            0.738124486000     0.136761753000     1.321300587000    12.000000000000
         H            1.167895978000    -0.208871392000     2.269604115000     1.007825032230
         H            0.913184930000     1.214687260000     1.231999767000     1.007825032230
         C           -0.738124486000    -0.136761753000     1.321300587000    12.000000000000
         H           -0.913184930000    -1.214687260000     1.231999767000     1.007825032230
         H           -1.167895978000     0.208871392000     2.269604115000     1.007825032230

  Charge       = 0
  Multiplicity = 1
  Basis Set: JUN-CC-PVDZ
    Blend: JUN-CC-PVDZ
  Basis Set: (JUN-CC-PVDZ AUX)
    Blend: JUN-CC-PVDZ-JKFIT

    Orbital Energies [Eh]
    ---------------------

    Doubly Occupied:

       1A    -20.593177     2A    -20.593175     3A    -11.305772
       4A    -11.305771     5A    -11.301572     6A    -11.300884
       7A    -11.245319     8A    -11.245319     9A    -11.243529
      10A    -11.243529    11A    -11.237175    12A    -11.237175
      13A    -11.231917    14A    -11.231917    15A    -11.231318
      16A    -11.231318    17A     -1.435902    18A     -1.420141
      19A     -1.158076    20A     -1.153547    21A     -1.066521
      22A     -1.024657    23A     -1.023053    24A     -1.012674
      25A     -0.983790    26A     -0.892439    27A     -0.840304
      28A     -0.830483    29A     -0.819617    30A     -0.800340
      31A     -0.740228    32A     -0.735805    33A     -0.683398
      34A     -0.679086    35A     -0.673457    36A     -0.652124
      37A     -0.645532    38A     -0.644377    39A     -0.620812
      40A     -0.611803    41A     -0.591939    42A     -0.588970
      43A     -0.576428    44A     -0.546806    45A     -0.531814
      46A     -0.529347    47A     -0.515745    48A     -0.515380
      49A     -0.509307    50A     -0.484842    51A     -0.481048
      52A     -0.471307    53A     -0.468460    54A     -0.342199
      55A     -0.342091    56A     -0.315200    57A     -0.311961

  @DF-RHF Final Energy:  -688.07887826982665

   => Energetics <=

    Nuclear Repulsion Energy =            976.6038463843866566
    One-Electron Energy =               -2873.2657028344365244
    Two-Electron Energy =                1208.5829781802233356
    Total Energy =                       -688.0788782698266459
 Dipole X            :         -0.0000000            0.0000000           -0.0000000
 Dipole Y            :          0.0000000            0.0000000            0.0000000
 Dipole Z            :         -2.0413802            2.8055118            0.7641316
 Magnitude           :                                                    0.7641316
  Basis Set: (JUN-CC-PVDZ AUX)
    Blend: JUN-CC-PVDZ-JKFIT
  Basis Set: JUN-CC-PVDZ
    Blend: JUN-CC-PVDZ

    SAPT Results
  --------------------------------------------------------------------------------------------------------
    Electrostatics                  5.32636152 [mEh]       3.34234232 [kcal/mol]      13.98436025 [kJ/mol]
      Elst10,r                      5.32636152 [mEh]       3.34234232 [kcal/mol]      13.98436025 [kJ/mol]

    Exchange                        0.55210223 [mEh]       0.34644938 [kcal/mol]       1.44954421 [kJ/mol]
      Exch10                        0.55210223 [mEh]       0.34644938 [kcal/mol]       1.44954421 [kJ/mol]
      Exch10(S^2)                   0.55178848 [mEh]       0.34625250 [kcal/mol]       1.44872046 [kJ/mol]

    Induction                      -0.55683049 [mEh]      -0.34941641 [kcal/mol]      -1.46195825 [kJ/mol]
      Ind20,r                      -0.57067331 [mEh]      -0.35810291 [kcal/mol]      -1.49830257 [kJ/mol]
      Exch-Ind20,r                  0.09203323 [mEh]       0.05775173 [kcal/mol]       0.24163323 [kJ/mol]
      delta HF,r (2)               -0.07819041 [mEh]      -0.04906523 [kcal/mol]      -0.20528891 [kJ/mol]
      Induction (A<-B)             -0.27841524 [mEh]      -0.17470820 [kcal/mol]      -0.73097912 [kJ/mol]
      Induction (B<-A)             -0.27841524 [mEh]      -0.17470820 [kcal/mol]      -0.73097912 [kJ/mol]

    Dispersion                     -1.31279172 [mEh]      -0.82378924 [kcal/mol]      -3.44673419 [kJ/mol]
      Disp20                       -1.34614373 [mEh]      -0.84471794 [kcal/mol]      -3.53429988 [kJ/mol]
      Exch-Disp20                   0.03335201 [mEh]       0.02092870 [kcal/mol]       0.08756569 [kJ/mol]

  Total HF                          5.32163326 [mEh]       3.33937529 [kcal/mol]      13.97194621 [kJ/mol]
  Total SAPT0                       4.00884154 [mEh]       2.51558605 [kcal/mol]      10.52521201 [kJ/mol]

  --------------------------------------------------------------------------------------------------------

*** Psi4 exiting successfully. Buy a developer a beer!
