                               Psi4 1.7 release

  ==> Input File <==

--------------------------------------------------------------------------
memory 12000 MiB
mol = psi4.core.Molecule.from_arrays(
    elez=[8,6,6,6,6,6,6,1,1,1,1,1,8,6,6,6,6,6,6,1,1,1,1,1,6,1,1,6,1,1],
    fragment_separators=[12, 24],
    fix_com=True,
    fix_orientation=True,
    fix_symmetry='c1',
    fragment_multiplicities=[2, 2, 1],
    molecular_charge=0,
    molecular_multiplicity=1,
    geom= [
       -1.209328681,     -0.847812857,      0.087591566,
       -2.416454135,     -0.232021467,      0.078856228,
       -2.949531435,      0.461700623,     -1.003027890,
       -3.154931652,     -0.343207668,      1.255675586,
       -4.213301958,      1.030827669,     -0.897758842,
       -4.409274793,      0.227678315,      1.344768944,
       -4.949845901,      0.921063126,      0.267818777,
       -2.401256866,      0.567598540,     -1.928654507,
       -2.720212791,     -0.884390052,      2.086430187,
       -4.617872494,      1.569316176,     -1.746619372,
       -4.971037324,      0.132581752,      2.266217843,
       -5.931366172,      1.371073875,      0.340945895,

        1.209328681,      0.847812857,      0.087591566,
        2.416454135,      0.232021467,      0.078856228,
        2.949531435,     -0.461700623,     -1.003027890,
        3.154931652,      0.343207668,      1.255675586,
        4.213301958,     -1.030827669,     -0.897758842,
        4.409274793,     -0.227678315,      1.344768944,
        4.949845901,     -0.921063126,      0.267818777,
        2.401256866,     -0.567598540,     -1.928654507,
        2.720212791,      0.884390052,      2.086430187,
        4.617872494,     -1.569316176,     -1.746619372,
        4.971037324,     -0.132581752,      2.266217843,
        5.931366172,     -1.371073875,      0.340945895,

       -0.340479724,     -0.677365299,     -1.008187721,
        0.401376731,     -1.469244816,     -0.904459786,
       -0.863316534,     -0.833904687,     -1.958188597,
        0.340479724,      0.677365299,     -1.008187721,
        0.863316534,      0.833904687,     -1.958188597,
       -0.401376731,      1.469244816,     -0.904459786])
activate(mol)

set {
basis jun-cc-pvdz
scf_type df
guess sad
freeze_core true
fisapt_do_plot true
}
energy('fisapt0')
--------------------------------------------------------------------------

    Molecular point group: c1

    Geometry (in Angstrom), charge = 0, multiplicity = 1:

       Center              X                  Y                   Z               Mass
    ------------   -----------------  -----------------  -----------------  -----------------
         O           -1.209328681000    -0.847812857000     0.087591566000    15.994914619570
         C           -2.416454135000    -0.232021467000     0.078856228000    12.000000000000
         C           -2.949531435000     0.461700623000    -1.003027890000    12.000000000000
         C           -3.154931652000    -0.343207668000     1.255675586000    12.000000000000
         C           -4.213301958000     1.030827669000    -0.897758842000    12.000000000000
         C           -4.409274793000     0.227678315000     1.344768944000    12.000000000000
         C           -4.949845901000     0.921063126000     0.267818777000    12.000000000000
         H           -2.401256866000     0.567598540000    -1.928654507000     1.007825032230
         H           -2.720212791000    -0.884390052000     2.086430187000     1.007825032230
         H           -4.617872494000     1.569316176000    -1.746619372000     1.007825032230
         H           -4.971037324000     0.132581752000     2.266217843000     1.007825032230
         H           -5.931366172000     1.371073875000     0.340945895000     1.007825032230
         O            1.209328681000     0.847812857000     0.087591566000    15.994914619570
         C            2.416454135000     0.232021467000     0.078856228000    12.000000000000
         C            2.949531435000    -0.461700623000    -1.003027890000    12.000000000000
         C            3.154931652000     0.343207668000     1.255675586000    12.000000000000
         C            4.213301958000    -1.030827669000    -0.897758842000    12.000000000000
         C            4.409274793000    -0.227678315000     1.344768944000    12.000000000000
         C            4.949845901000    -0.921063126000     0.267818777000    12.000000000000
         H            2.401256866000    -0.567598540000    -1.928654507000     1.007825032230
         H            2.720212791000     0.884390052000     2.086430187000     1.007825032230
         H            4.617872494000    -1.569316176000    -1.746619372000     1.007825032230
         H            4.971037324000    -0.132581752000     2.266217843000     1.007825032230
         H            5.931366172000    -1.371073875000     0.340945895000     1.007825032230
         C           -0.340479724000    -0.677365299000    -1.008187721000    12.000000000000
         H            0.401376731000    -1.469244816000    -0.904459786000     1.007825032230
         H           -0.863316534000    -0.833904687000    -1.958188597000     1.007825032230
         C            0.340479724000     0.677365299000    -1.008187721000    12.000000000000
         H            0.863316534000     0.833904687000    -1.958188597000     1.007825032230
         H           -0.401376731000     1.469244816000    -0.904459786000     1.007825032230

  Charge       = 0
  Multiplicity = 1
  Basis Set: JUN-CC-PVDZ
    Blend: JUN-CC-PVDZ
  Basis Set: (JUN-CC-PVDZ AUX)
    Blend: JUN-CC-PVDZ-JKFIT

    Orbital Energies [Eh]
    ---------------------

    Doubly Occupied:

       1A    -20.592998     2A    -20.592997     3A    -11.307504
       4A    -11.307503     5A    -11.300502     6A    -11.299859
       7A    -11.247245     8A    -11.247244     9A    -11.244714
      10A    -11.244714    11A    -11.239509    12A    -11.239508
      13A    -11.232609    14A    -11.232609    15A    -11.232510
      16A    -11.232510    17A     -1.433726    18A     -1.418578
      19A     -1.158054    20A     -1.155590    21A     -1.060568
      22A     -1.025660    23A     -1.023750    24A     -1.018675
      25A     -0.988637    26A     -0.897008    27A     -0.840991
      28A     -0.838096    29A     -0.823347    30A     -0.796577
      31A     -0.741168    32A     -0.713382    33A     -0.690018
      34A     -0.683221    35A     -0.672606    36A     -0.662332
      37A     -0.661585    38A     -0.625991    39A     -0.618696
      40A     -0.605871    41A     -0.590839    42A     -0.588750
      43A     -0.578251    44A     -0.570792    45A     -0.529982
      46A     -0.524092    47A     -0.523020    48A     -0.518534
      49A     -0.508321    50A     -0.487494    51A     -0.487171
      52A     -0.473607    53A     -0.457627    54A     -0.343884
      55A     -0.343549    56A     -0.316515    57A     -0.311911

  @DF-RHF Final Energy:  -688.07118974734760

   => Energetics <=

    Nuclear Repulsion Energy =           1001.5773746307477268
    One-Electron Energy =               -2923.0911290237340836
    Two-Electron Energy =                1233.4425646456388677
    Total Energy =                       -688.0711897473474892
 Dipole X            :         -0.0000000            0.0000000           -0.0000000
 Dipole Y            :          0.0000000           -0.0000000            0.0000000
 Dipole Z            :          2.6312721           -3.4571607           -0.8258885
 Magnitude           :                                                    0.8258885
  Basis Set: (JUN-CC-PVDZ AUX)
    Blend: JUN-CC-PVDZ-JKFIT
  Basis Set: JUN-CC-PVDZ
    Blend: JUN-CC-PVDZ

    SAPT Results
  --------------------------------------------------------------------------------------------------------
    Electrostatics                  6.89232347 [mEh]       4.32499827 [kcal/mol]      18.09579277 [kJ/mol]
      Elst10,r                      6.89232347 [mEh]       4.32499827 [kcal/mol]      18.09579277 [kJ/mol]

    Exchange                        0.36029233 [mEh]       0.22608685 [kcal/mol]       0.94594738 [kJ/mol]
      Exch10                        0.36029233 [mEh]       0.22608685 [kcal/mol]       0.94594738 [kJ/mol]
      Exch10(S^2)                   0.36037530 [mEh]       0.22613891 [kcal/mol]       0.94616522 [kJ/mol]

    Induction                      -0.77705479 [mEh]      -0.48760924 [kcal/mol]      -2.04015707 [kJ/mol]
      Ind20,r                      -0.77829917 [mEh]      -0.48839010 [kcal/mol]      -2.04342418 [kJ/mol]
      Exch-Ind20,r                  0.08552335 [mEh]       0.05366671 [kcal/mol]       0.22454152 [kJ/mol]
      delta HF,r (2)               -0.08427897 [mEh]      -0.05288585 [kcal/mol]      -0.22127440 [kJ/mol]
      Induction (A<-B)             -0.38852740 [mEh]      -0.24380462 [kcal/mol]      -1.02007854 [kJ/mol]
      Induction (B<-A)             -0.38852739 [mEh]      -0.24380462 [kcal/mol]      -1.02007853 [kJ/mol]

    Dispersion                     -1.72492501 [mEh]      -1.08240679 [kcal/mol]      -4.52878999 [kJ/mol]
      Disp20                       -1.76465463 [mEh]      -1.10733750 [kcal/mol]      -4.63310008 [kJ/mol]
      Exch-Disp20                   0.03972961 [mEh]       0.02493071 [kcal/mol]       0.10431009 [kJ/mol]

  Total HF                          6.47556101 [mEh]       4.06347588 [kcal/mol]      17.00158308 [kJ/mol]
  Total SAPT0                       4.75063600 [mEh]       2.98106909 [kcal/mol]      12.47279309 [kJ/mol]

  --------------------------------------------------------------------------------------------------------

*** Psi4 exiting successfully. Buy a developer a beer!
