                               Psi4 1.7 release

  ==> Input File <==

--------------------------------------------------------------------------
memory 12000 MiB
mol = psi4.core.Molecule.from_arrays(
    elez=[8,6,6,6,6,6,6,1,1,1,1,1,8,6,6,6,6,6,6,1,1,1,1,1,6,1,1,6,1,1],
    fragment_separators=[12, 24],
    fix_com=True,
    fix_orientation=True,
    fix_symmetry='c1',
    fragment_multiplicities=[2, 2, 1],
    molecular_charge=0,
    molecular_multiplicity=1,
    geom= [
       -1.574614596,      1.749489475,      0.095864865,
       -2.439609580,      0.773421408,     -0.283515662,
       -3.740894766,      1.192689054,     -0.552489483,
       -2.104500510,     -0.570521729,     -0.409131978,
       -4.698690396,      0.273070107,     -0.933839146,
       -3.080935269,     -1.482430717,     -0.792964532,
       -4.376505933,     -1.073841251,     -1.055820856,
       -3.978633778,      2.243891512,     -0.448747047,
       -1.096692637,     -0.917749155,     -0.227492920,
       -5.707758208,      0.611178259,     -1.136798844,
       -2.810827528,     -2.527292764,     -0.889706708,
       -5.128535468,     -1.792660509,     -1.355105394,

        1.215050949,     -0.223563465,     -0.715220687,
        2.298185718,     -0.357284169,      0.089303510,
        2.838166720,      0.665526486,      0.861118876,
        2.881330494,     -1.622690271,      0.113538187,
        3.960169336,      0.415110363,      1.642233224,
        3.994322816,     -1.856957020,      0.897130330,
        4.544350795,     -0.838739638,      1.667535858,
        2.401121893,      1.654540553,      0.864792160,
        2.445825285,     -2.404786229,     -0.495465450,
        4.374557182,      1.219391445,      2.238176615,
        4.439724368,     -2.844571264,      0.904759804,
        5.418098652,     -1.024124816,      2.278799299,

       -0.254607862,      1.384563598,      0.429060224,
        0.142064276,      2.252099811,      0.956233144,
       -0.246294901,      0.536372512,      1.122112732,
        0.590702425,      1.040201235,     -0.802554035,
       -0.068254904,      0.973844699,     -1.667608989,
        1.336606633,      1.813450200,     -1.007336796])
activate(mol)

set {
basis jun-cc-pvdz
scf_type df
guess sad
freeze_core true
fisapt_do_plot true
}
energy('fisapt0')
--------------------------------------------------------------------------

    Molecular point group: c1

    Geometry (in Angstrom), charge = 0, multiplicity = 1:

       Center              X                  Y                   Z               Mass
    ------------   -----------------  -----------------  -----------------  -----------------
         O           -1.574614596000     1.749489475000     0.095864865000    15.994914619570
         C           -2.439609580000     0.773421408000    -0.283515662000    12.000000000000
         C           -3.740894766000     1.192689054000    -0.552489483000    12.000000000000
         C           -2.104500510000    -0.570521729000    -0.409131978000    12.000000000000
         C           -4.698690396000     0.273070107000    -0.933839146000    12.000000000000
         C           -3.080935269000    -1.482430717000    -0.792964532000    12.000000000000
         C           -4.376505933000    -1.073841251000    -1.055820856000    12.000000000000
         H           -3.978633778000     2.243891512000    -0.448747047000     1.007825032230
         H           -1.096692637000    -0.917749155000    -0.227492920000     1.007825032230
         H           -5.707758208000     0.611178259000    -1.136798844000     1.007825032230
         H           -2.810827528000    -2.527292764000    -0.889706708000     1.007825032230
         H           -5.128535468000    -1.792660509000    -1.355105394000     1.007825032230
         O            1.215050949000    -0.223563465000    -0.715220687000    15.994914619570
         C            2.298185718000    -0.357284169000     0.089303510000    12.000000000000
         C            2.838166720000     0.665526486000     0.861118876000    12.000000000000
         C            2.881330494000    -1.622690271000     0.113538187000    12.000000000000
         C            3.960169336000     0.415110363000     1.642233224000    12.000000000000
         C            3.994322816000    -1.856957020000     0.897130330000    12.000000000000
         C            4.544350795000    -0.838739638000     1.667535858000    12.000000000000
         H            2.401121893000     1.654540553000     0.864792160000     1.007825032230
         H            2.445825285000    -2.404786229000    -0.495465450000     1.007825032230
         H            4.374557182000     1.219391445000     2.238176615000     1.007825032230
         H            4.439724368000    -2.844571264000     0.904759804000     1.007825032230
         H            5.418098652000    -1.024124816000     2.278799299000     1.007825032230
         C           -0.254607862000     1.384563598000     0.429060224000    12.000000000000
         H            0.142064276000     2.252099811000     0.956233144000     1.007825032230
         H           -0.246294901000     0.536372512000     1.122112732000     1.007825032230
         C            0.590702425000     1.040201235000    -0.802554035000    12.000000000000
         H           -0.068254904000     0.973844699000    -1.667608989000     1.007825032230
         H            1.336606633000     1.813450200000    -1.007336796000     1.007825032230

  Charge       = 0
  Multiplicity = 1
  Basis Set: JUN-CC-PVDZ
    Blend: JUN-CC-PVDZ
  Basis Set: (JUN-CC-PVDZ AUX)
    Blend: JUN-CC-PVDZ-JKFIT

    Orbital Energies [Eh]
    ---------------------

    Doubly Occupied:

       1A    -20.599385     2A    -20.595054     3A    -11.312156
       4A    -11.304631     5A    -11.300994     6A    -11.300375
       7A    -11.251344     8A    -11.249409     9A    -11.243781
      10A    -11.243572    11A    -11.242994    12A    -11.238042
      13A    -11.236829    14A    -11.234041    15A    -11.232241
      16A    -11.230902    17A     -1.435174    18A     -1.423727
      19A     -1.161420    20A     -1.154468    21A     -1.058665
      22A     -1.029122    23A     -1.022579    24A     -1.020171
      25A     -0.986514    26A     -0.898063    27A     -0.844622
      28A     -0.837582    29A     -0.820025    30A     -0.801883
      31A     -0.737292    32A     -0.729954    33A     -0.692366
      34A     -0.676848    35A     -0.673343    36A     -0.665073
      37A     -0.656568    38A     -0.628095    39A     -0.617026
      40A     -0.599806    41A     -0.592270    42A     -0.589388
      43A     -0.583848    44A     -0.577675    45A     -0.535224
      46A     -0.523972    47A     -0.519480    48A     -0.518166
      49A     -0.507505    50A     -0.490453    51A     -0.485608
      52A     -0.478353    53A     -0.458729    54A     -0.348319
      55A     -0.340732    56A     -0.321146    57A     -0.311975

  @DF-RHF Final Energy:  -688.06981734844430

   => Energetics <=

    Nuclear Repulsion Energy =           1008.0838114329006885
    One-Electron Energy =               -2935.9693001610389729
    Two-Electron Energy =                1239.8156713796938675
    Total Energy =                       -688.0698173484443032
 Dipole X            :         -1.6874319            2.1040128            0.4165809
 Dipole Y            :          0.7558644           -0.6544177            0.1014467
 Dipole Z            :         -2.4715697            2.6444679            0.1728982
 Magnitude           :                                                    0.4623038
  Basis Set: (JUN-CC-PVDZ AUX)
    Blend: JUN-CC-PVDZ-JKFIT
  Basis Set: JUN-CC-PVDZ
    Blend: JUN-CC-PVDZ

    SAPT Results
  --------------------------------------------------------------------------------------------------------
    Electrostatics                  0.93848957 [mEh]       0.58891109 [kcal/mol]       2.46400402 [kJ/mol]
      Elst10,r                      0.93848957 [mEh]       0.58891109 [kcal/mol]       2.46400402 [kJ/mol]

    Exchange                        3.24733774 [mEh]       2.03773520 [kcal/mol]       8.52588406 [kJ/mol]
      Exch10                        3.24733774 [mEh]       2.03773520 [kcal/mol]       8.52588406 [kJ/mol]
      Exch10(S^2)                   3.24310237 [mEh]       2.03507746 [kcal/mol]       8.51476411 [kJ/mol]

    Induction                      -1.80205507 [mEh]      -1.13080663 [kcal/mol]      -4.73129492 [kJ/mol]
      Ind20,r                      -2.97302742 [mEh]      -1.86560287 [kcal/mol]      -7.80568242 [kJ/mol]
      Exch-Ind20,r                  1.63888337 [mEh]       1.02841484 [kcal/mol]       4.30288770 [kJ/mol]
      delta HF,r (2)               -0.46791102 [mEh]      -0.29361860 [kcal/mol]      -1.22850021 [kJ/mol]
      Induction (A<-B)             -0.97915125 [mEh]      -0.61442668 [kcal/mol]      -2.57076124 [kJ/mol]
      Induction (B<-A)             -0.82290382 [mEh]      -0.51637994 [kcal/mol]      -2.16053368 [kJ/mol]

    Dispersion                     -2.53301758 [mEh]      -1.58949253 [kcal/mol]      -6.65043673 [kJ/mol]
      Disp20                       -2.72037510 [mEh]      -1.70706115 [kcal/mol]      -7.14234385 [kJ/mol]
      Exch-Disp20                   0.18735753 [mEh]       0.11756862 [kcal/mol]       0.49190712 [kJ/mol]

  Total HF                          2.38377224 [mEh]       1.49583966 [kcal/mol]       6.25859316 [kJ/mol]
  Total SAPT0                      -0.14924534 [mEh]      -0.09365286 [kcal/mol]      -0.39184358 [kJ/mol]

  --------------------------------------------------------------------------------------------------------

*** Psi4 exiting successfully. Buy a developer a beer!
