                               Psi4 1.7 release

  ==> Input File <==

--------------------------------------------------------------------------
memory 12000 MiB
mol = psi4.core.Molecule.from_arrays(
    elez=[8,6,6,6,6,6,6,1,1,1,1,1,8,6,6,6,6,6,6,1,1,1,1,1,6,1,1,6,1,1],
    fragment_separators=[12, 24],
    fix_com=True,
    fix_orientation=True,
    fix_symmetry='c1',
    fragment_multiplicities=[2, 2, 1],
    molecular_charge=0,
    molecular_multiplicity=1,
    geom= [
        1.163399336,      1.044406770,      1.597660135,
        1.692104357,      0.579153536,      0.433772779,
        1.608380547,     -0.737147524,     -0.002284891,
        2.328106455,      1.533163731,     -0.355429529,
        2.173516954,     -1.087380024,     -1.221341466,
        2.880081467,      1.170158758,     -1.569622676,
        2.810220526,     -0.145289949,     -2.010573046,
        1.076512475,     -1.480570519,      0.574186293,
        2.377796280,      2.553136868,      0.003707150,
        2.096157042,     -2.113978980,     -1.557941805,
        3.371648061,      1.921782948,     -2.175963647,
        3.241179625,     -0.428183109,     -2.962141464,

       -1.163399336,     -1.044406770,      1.597660135,
       -1.692104357,     -0.579153536,      0.433772779,
       -2.328106455,     -1.533163731,     -0.355429529,
       -1.608380547,      0.737147524,     -0.002284891,
       -2.880081467,     -1.170158758,     -1.569622676,
       -2.173516954,      1.087380024,     -1.221341466,
       -2.810220526,      0.145289949,     -2.010573046,
       -2.377796280,     -2.553136868,      0.003707150,
       -1.076512475,      1.480570519,      0.574186293,
       -3.371648061,     -1.921782948,     -2.175963647,
       -2.096157042,      2.113978980,     -1.557941805,
       -3.241179625,      0.428183109,     -2.962141464,

        0.742897767,      0.142999176,      2.597686392,
        1.311225210,     -0.789331154,      2.548918819,
        0.980075782,      0.628437069,      3.548476252,
       -0.742897767,     -0.142999176,      2.597686392,
       -0.980075782,     -0.628437069,      3.548476252,
       -1.311225210,      0.789331154,      2.548918819])
activate(mol)

set {
basis jun-cc-pvdz
scf_type df
guess sad
freeze_core true
fisapt_do_plot true
}
energy('fisapt0')
--------------------------------------------------------------------------

    Molecular point group: c1

    Geometry (in Angstrom), charge = 0, multiplicity = 1:

       Center              X                  Y                   Z               Mass
    ------------   -----------------  -----------------  -----------------  -----------------
         O            1.163399336000     1.044406770000     1.597660135000    15.994914619570
         C            1.692104357000     0.579153536000     0.433772779000    12.000000000000
         C            1.608380547000    -0.737147524000    -0.002284891000    12.000000000000
         C            2.328106455000     1.533163731000    -0.355429529000    12.000000000000
         C            2.173516954000    -1.087380024000    -1.221341466000    12.000000000000
         C            2.880081467000     1.170158758000    -1.569622676000    12.000000000000
         C            2.810220526000    -0.145289949000    -2.010573046000    12.000000000000
         H            1.076512475000    -1.480570519000     0.574186293000     1.007825032230
         H            2.377796280000     2.553136868000     0.003707150000     1.007825032230
         H            2.096157042000    -2.113978980000    -1.557941805000     1.007825032230
         H            3.371648061000     1.921782948000    -2.175963647000     1.007825032230
         H            3.241179625000    -0.428183109000    -2.962141464000     1.007825032230
         O           -1.163399336000    -1.044406770000     1.597660135000    15.994914619570
         C           -1.692104357000    -0.579153536000     0.433772779000    12.000000000000
         C           -2.328106455000    -1.533163731000    -0.355429529000    12.000000000000
         C           -1.608380547000     0.737147524000    -0.002284891000    12.000000000000
         C           -2.880081467000    -1.170158758000    -1.569622676000    12.000000000000
         C           -2.173516954000     1.087380024000    -1.221341466000    12.000000000000
         C           -2.810220526000     0.145289949000    -2.010573046000    12.000000000000
         H           -2.377796280000    -2.553136868000     0.003707150000     1.007825032230
         H           -1.076512475000     1.480570519000     0.574186293000     1.007825032230
         H           -3.371648061000    -1.921782948000    -2.175963647000     1.007825032230
         H           -2.096157042000     2.113978980000    -1.557941805000     1.007825032230
         H           -3.241179625000     0.428183109000    -2.962141464000     1.007825032230
         C            0.742897767000     0.142999176000     2.597686392000    12.000000000000
         H            1.311225210000    -0.789331154000     2.548918819000     1.007825032230
         H            0.980075782000     0.628437069000     3.548476252000     1.007825032230
         C           -0.742897767000    -0.142999176000     2.597686392000    12.000000000000
         H           -0.980075782000    -0.628437069000     3.548476252000     1.007825032230
         H           -1.311225210000     0.789331154000     2.548918819000     1.007825032230

  Charge       = 0
  Multiplicity = 1
  Basis Set: JUN-CC-PVDZ
    Blend: JUN-CC-PVDZ
  Basis Set: (JUN-CC-PVDZ AUX)
    Blend: JUN-CC-PVDZ-JKFIT

    Orbital Energies [Eh]
    ---------------------

    Doubly Occupied:

       1A    -20.592788     2A    -20.592786     3A    -11.302227
       4A    -11.302227     5A    -11.301047     6A    -11.300397
       7A    -11.240333     8A    -11.240331     9A    -11.240264
      10A    -11.240264    11A    -11.230891    12A    -11.230891
      13A    -11.229650    14A    -11.229649    15A    -11.228113
      16A    -11.228112    17A     -1.431009    18A     -1.416688
      19A     -1.154459    20A     -1.150514    21A     -1.061231
      22A     -1.020601    23A     -1.019425    24A     -1.013090
      25A     -0.982663    26A     -0.893467    27A     -0.837773
      28A     -0.832713    29A     -0.814297    30A     -0.795773
      31A     -0.738948    32A     -0.721705    33A     -0.691551
      34A     -0.670528    35A     -0.666169    36A     -0.662878
      37A     -0.654629    38A     -0.620003    39A     -0.611466
      40A     -0.600966    41A     -0.587059    42A     -0.584569
      43A     -0.578713    44A     -0.562929    45A     -0.536440
      46A     -0.520865    47A     -0.514892    48A     -0.513137
      49A     -0.508161    50A     -0.485619    51A     -0.477785
      52A     -0.473453    53A     -0.452149    54A     -0.339064
      55A     -0.337419    56A     -0.312310    57A     -0.308417

  @DF-RHF Final Energy:  -688.07017450592366

   => Energetics <=

    Nuclear Repulsion Energy =           1067.8505857705649760
    One-Electron Energy =               -3056.0705238512146025
    Two-Electron Energy =                1300.1497635747259665
    Total Energy =                       -688.0701745059236600
 Dipole X            :         -0.0000000            0.0000000           -0.0000000
 Dipole Y            :          0.0000000           -0.0000000            0.0000000
 Dipole Z            :          0.3858970           -0.0235533            0.3623437
 Magnitude           :                                                    0.3623437
  Basis Set: (JUN-CC-PVDZ AUX)
    Blend: JUN-CC-PVDZ-JKFIT
  Basis Set: JUN-CC-PVDZ
    Blend: JUN-CC-PVDZ

    SAPT Results
  --------------------------------------------------------------------------------------------------------
    Electrostatics                 -1.11674323 [mEh]      -0.70076695 [kcal/mol]      -2.93200894 [kJ/mol]
      Elst10,r                     -1.11674323 [mEh]      -0.70076695 [kcal/mol]      -2.93200894 [kJ/mol]

    Exchange                       11.95582190 [mEh]       7.50239151 [kcal/mol]      31.39000608 [kJ/mol]
      Exch10                       11.95582190 [mEh]       7.50239151 [kcal/mol]      31.39000608 [kJ/mol]
      Exch10(S^2)                  11.91126736 [mEh]       7.47443311 [kcal/mol]      31.27302814 [kJ/mol]

    Induction                      -2.56908771 [mEh]      -1.61212687 [kcal/mol]      -6.74513884 [kJ/mol]
      Ind20,r                      -6.18601146 [mEh]      -3.88178079 [kcal/mol]     -16.24137085 [kJ/mol]
      Exch-Ind20,r                  4.65297358 [mEh]       2.91978500 [kcal/mol]      12.21638044 [kJ/mol]
      delta HF,r (2)               -1.03604982 [mEh]      -0.65013108 [kcal/mol]      -2.72014844 [kJ/mol]
      Induction (A<-B)             -1.28454385 [mEh]      -0.80606344 [kcal/mol]      -3.37256941 [kJ/mol]
      Induction (B<-A)             -1.28454386 [mEh]      -0.80606344 [kcal/mol]      -3.37256943 [kJ/mol]

    Dispersion                     -9.20438112 [mEh]      -5.77583636 [kcal/mol]     -24.16609931 [kJ/mol]
      Disp20                      -10.49113726 [mEh]      -6.58328802 [kcal/mol]     -27.54447709 [kJ/mol]
      Exch-Disp20                   1.28675614 [mEh]       0.80745167 [kcal/mol]       3.37837778 [kJ/mol]

  Total HF                          8.26999097 [mEh]       5.18949768 [kcal/mol]      21.71285830 [kJ/mol]
  Total SAPT0                      -0.93439015 [mEh]      -0.58633867 [kcal/mol]      -2.45324101 [kJ/mol]

  --------------------------------------------------------------------------------------------------------

*** Psi4 exiting successfully. Buy a developer a beer!
