                               Psi4 1.7 release

  ==> Input File <==

--------------------------------------------------------------------------
memory 12000 MiB
mol = psi4.core.Molecule.from_arrays(
    elez=[8,6,6,6,6,6,6,1,1,1,1,1,8,6,6,6,6,6,6,1,1,1,1,1,6,1,1,6,1,1],
    fragment_separators=[12, 24],
    fix_com=True,
    fix_orientation=True,
    fix_symmetry='c1',
    fragment_multiplicities=[2, 2, 1],
    molecular_charge=0,
    molecular_multiplicity=1,
    geom= [
       -1.649929407,      1.832406192,      0.301725151,
       -2.062775796,      0.587381274,     -0.052440886,
       -1.349770662,     -0.585644127,      0.164063310,
       -3.308716998,      0.532905280,     -0.673718107,
       -1.893363230,     -1.798822283,     -0.238008653,
       -3.834505768,     -0.681492762,     -1.071374715,
       -3.131247425,     -1.859947766,     -0.854263515,
       -0.369082018,     -0.578774545,      0.616010831,
       -3.846536160,      1.458853953,     -0.833740102,
       -1.324570538,     -2.705365317,     -0.068702293,
       -4.804221061,     -0.707613824,     -1.553633521,
       -3.542700266,     -2.811216267,     -1.166185615,

        1.136200990,      1.307976107,     -0.730608808,
        1.902537691,      0.325980318,     -0.199049409,
        2.188989539,     -0.738956756,     -1.051903195,
        2.397116937,      0.318267552,      1.101567142,
        2.966653086,     -1.791144863,     -0.610004903,
        3.178215592,     -0.748942903,      1.531475779,
        3.468381267,     -1.805234744,      0.686962327,
        1.783604228,     -0.717064019,     -2.055073245,
        2.185595779,      1.126770338,      1.787092857,
        3.182274336,     -2.611393686,     -1.284303130,
        3.558843323,     -0.745099012,      2.545748402,
        4.075515234,     -2.632434131,      1.031826738,

       -0.445815177,      2.017199207,      1.009320366,
       -0.616501796,      2.872908487,      1.668549989,
       -0.219110058,      1.155359727,      1.640369164,
        0.707077592,      2.368965050,      0.091802896,
        0.376154218,      3.145561041,     -0.598557595,
        1.539361611,      2.773846931,      0.678250900])
activate(mol)

set {
basis jun-cc-pvdz
scf_type df
guess sad
freeze_core true
fisapt_do_plot true
}
energy('fisapt0')
--------------------------------------------------------------------------

    Molecular point group: c1

    Geometry (in Angstrom), charge = 0, multiplicity = 1:

       Center              X                  Y                   Z               Mass
    ------------   -----------------  -----------------  -----------------  -----------------
         O           -1.649929407000     1.832406192000     0.301725151000    15.994914619570
         C           -2.062775796000     0.587381274000    -0.052440886000    12.000000000000
         C           -1.349770662000    -0.585644127000     0.164063310000    12.000000000000
         C           -3.308716998000     0.532905280000    -0.673718107000    12.000000000000
         C           -1.893363230000    -1.798822283000    -0.238008653000    12.000000000000
         C           -3.834505768000    -0.681492762000    -1.071374715000    12.000000000000
         C           -3.131247425000    -1.859947766000    -0.854263515000    12.000000000000
         H           -0.369082018000    -0.578774545000     0.616010831000     1.007825032230
         H           -3.846536160000     1.458853953000    -0.833740102000     1.007825032230
         H           -1.324570538000    -2.705365317000    -0.068702293000     1.007825032230
         H           -4.804221061000    -0.707613824000    -1.553633521000     1.007825032230
         H           -3.542700266000    -2.811216267000    -1.166185615000     1.007825032230
         O            1.136200990000     1.307976107000    -0.730608808000    15.994914619570
         C            1.902537691000     0.325980318000    -0.199049409000    12.000000000000
         C            2.188989539000    -0.738956756000    -1.051903195000    12.000000000000
         C            2.397116937000     0.318267552000     1.101567142000    12.000000000000
         C            2.966653086000    -1.791144863000    -0.610004903000    12.000000000000
         C            3.178215592000    -0.748942903000     1.531475779000    12.000000000000
         C            3.468381267000    -1.805234744000     0.686962327000    12.000000000000
         H            1.783604228000    -0.717064019000    -2.055073245000     1.007825032230
         H            2.185595779000     1.126770338000     1.787092857000     1.007825032230
         H            3.182274336000    -2.611393686000    -1.284303130000     1.007825032230
         H            3.558843323000    -0.745099012000     2.545748402000     1.007825032230
         H            4.075515234000    -2.632434131000     1.031826738000     1.007825032230
         C           -0.445815177000     2.017199207000     1.009320366000    12.000000000000
         H           -0.616501796000     2.872908487000     1.668549989000     1.007825032230
         H           -0.219110058000     1.155359727000     1.640369164000     1.007825032230
         C            0.707077592000     2.368965050000     0.091802896000    12.000000000000
         H            0.376154218000     3.145561041000    -0.598557595000     1.007825032230
         H            1.539361611000     2.773846931000     0.678250900000     1.007825032230

  Charge       = 0
  Multiplicity = 1
  Basis Set: JUN-CC-PVDZ
    Blend: JUN-CC-PVDZ
  Basis Set: (JUN-CC-PVDZ AUX)
    Blend: JUN-CC-PVDZ-JKFIT

    Orbital Energies [Eh]
    ---------------------

    Doubly Occupied:

       1A    -20.596285     2A    -20.590081     3A    -11.311055
       4A    -11.301424     5A    -11.301047     6A    -11.300368
       7A    -11.251430     8A    -11.248834     9A    -11.243608
      10A    -11.238666    11A    -11.238270    12A    -11.236823
      13A    -11.236342    14A    -11.228973    15A    -11.226852
      16A    -11.225848    17A     -1.434234    18A     -1.417021
      19A     -1.161187    20A     -1.150169    21A     -1.061763
      22A     -1.028567    23A     -1.020544    24A     -1.015157
      25A     -0.985517    26A     -0.896483    27A     -0.843522
      28A     -0.832954    29A     -0.819016    30A     -0.797233
      31A     -0.737878    32A     -0.724907    33A     -0.685566
      34A     -0.683410    35A     -0.671457    36A     -0.662069
      37A     -0.655342    38A     -0.624758    39A     -0.618380
      40A     -0.597632    41A     -0.588544    42A     -0.587531
      43A     -0.584938    44A     -0.568349    45A     -0.531316
      46A     -0.526415    47A     -0.521723    48A     -0.511566
      49A     -0.508872    50A     -0.486306    51A     -0.482879
      52A     -0.476282    53A     -0.455407    54A     -0.348685
      55A     -0.335547    56A     -0.318860    57A     -0.306815

  @DF-RHF Final Energy:  -688.07018907400152

   => Energetics <=

    Nuclear Repulsion Energy =           1047.2424147016733968
    One-Electron Energy =               -3014.5437935845811808
    Two-Electron Energy =                1279.2311898089062652
    Total Energy =                       -688.0701890740015187
 Dipole X            :         -4.3287832            4.8480156            0.5192324
 Dipole Y            :         -1.7761957            1.8717226            0.0955269
 Dipole Z            :          4.4209019           -3.8112852            0.6096168
 Magnitude           :                                                    0.8064492
  Basis Set: (JUN-CC-PVDZ AUX)
    Blend: JUN-CC-PVDZ-JKFIT
  Basis Set: JUN-CC-PVDZ
    Blend: JUN-CC-PVDZ

    SAPT Results
  --------------------------------------------------------------------------------------------------------
    Electrostatics                  3.33647268 [mEh]       2.09366822 [kcal/mol]       8.75990783 [kJ/mol]
      Elst10,r                      3.33647268 [mEh]       2.09366822 [kcal/mol]       8.75990783 [kJ/mol]

    Exchange                        6.97536348 [mEh]       4.37710667 [kcal/mol]      18.31381431 [kJ/mol]
      Exch10                        6.97536348 [mEh]       4.37710667 [kcal/mol]      18.31381431 [kJ/mol]
      Exch10(S^2)                   6.94464461 [mEh]       4.35783029 [kcal/mol]      18.23316191 [kJ/mol]

    Induction                      -1.81878902 [mEh]      -1.14130734 [kcal/mol]      -4.77522990 [kJ/mol]
      Ind20,r                      -3.45418454 [mEh]      -2.16753352 [kcal/mol]      -9.06896026 [kJ/mol]
      Exch-Ind20,r                  2.35299736 [mEh]       1.47652814 [kcal/mol]       6.17779372 [kJ/mol]
      delta HF,r (2)               -0.71760184 [mEh]      -0.45030195 [kcal/mol]      -1.88406337 [kJ/mol]
      Induction (A<-B)             -0.75493748 [mEh]      -0.47373042 [kcal/mol]      -1.98208809 [kJ/mol]
      Induction (B<-A)             -1.06385153 [mEh]      -0.66757692 [kcal/mol]      -2.79314181 [kJ/mol]

    Dispersion                     -6.49705721 [mEh]      -4.07696495 [kcal/mol]     -17.05802136 [kJ/mol]
      Disp20                       -7.23375129 [mEh]      -4.53924746 [kcal/mol]     -18.99221138 [kJ/mol]
      Exch-Disp20                   0.73669407 [mEh]       0.46228251 [kcal/mol]       1.93419002 [kJ/mol]

  Total HF                          8.49304715 [mEh]       5.32946755 [kcal/mol]      22.29849223 [kJ/mol]
  Total SAPT0                       1.99598994 [mEh]       1.25250260 [kcal/mol]       5.24047087 [kJ/mol]

  --------------------------------------------------------------------------------------------------------

*** Psi4 exiting successfully. Buy a developer a beer!
