                               Psi4 1.7 release

  ==> Input File <==

--------------------------------------------------------------------------
memory 12000 MiB
mol = psi4.core.Molecule.from_arrays(
    elez=[8,6,6,6,6,6,6,1,1,1,1,1,8,6,6,6,6,6,6,1,1,1,1,1,6,1,1,6,1,1],
    fragment_separators=[12, 24],
    fix_com=True,
    fix_orientation=True,
    fix_symmetry='c1',
    fragment_multiplicities=[2, 2, 1],
    molecular_charge=0,
    molecular_multiplicity=1,
    geom= [
       -1.111583790,      0.117804107,     -1.444639645,
       -1.004331660,     -0.927761371,     -2.304242421,
        0.127353113,     -1.722610697,     -2.451408136,
       -2.130932039,     -1.179842561,     -3.084242612,
        0.121419144,     -2.756528409,     -3.379849294,
       -2.121648941,     -2.212505182,     -4.001818041,
       -0.994059172,     -3.009760878,     -4.158341024,
        1.012625177,     -1.553963487,     -1.853609298,
       -3.000607808,     -0.548194043,     -2.954537465,
        1.008355995,     -3.369512480,     -3.486880921,
       -3.004019155,     -2.395915347,     -4.603483590,
       -0.989191554,     -3.818226068,     -4.877893524,

        1.111583790,     -0.117804107,      1.444639645,
        1.004331660,      0.927761371,      2.304242421,
       -0.127353113,      1.722610697,      2.451408136,
        2.130932039,      1.179842561,      3.084242612,
       -0.121419144,      2.756528409,      3.379849294,
        2.121648941,      2.212505182,      4.001818041,
        0.994059172,      3.009760878,      4.158341024,
       -1.012625177,      1.553963487,      1.853609298,
        3.000607808,      0.548194043,      2.954537465,
       -1.008355995,      3.369512480,      3.486880921,
        3.004019155,      2.395915347,      4.603483590,
        0.989191554,      3.818226068,      4.877893524,

       -0.019317159,      0.444222139,     -0.616943072,
        0.929143975,      0.382932822,     -1.158293013,
       -0.165214764,      1.485797219,     -0.330080129,
        0.019317159,     -0.444222139,      0.616943072,
       -0.929143975,     -0.382932822,      1.158293013,
        0.165214764,     -1.485797219,      0.330080129])
activate(mol)

set {
basis jun-cc-pvdz
scf_type df
guess sad
freeze_core true
fisapt_do_plot true
}
energy('fisapt0')
--------------------------------------------------------------------------

    Molecular point group: c1

    Geometry (in Angstrom), charge = 0, multiplicity = 1:

       Center              X                  Y                   Z               Mass
    ------------   -----------------  -----------------  -----------------  -----------------
         O           -1.111583790000     0.117804107000    -1.444639645000    15.994914619570
         C           -1.004331660000    -0.927761371000    -2.304242421000    12.000000000000
         C            0.127353113000    -1.722610697000    -2.451408136000    12.000000000000
         C           -2.130932039000    -1.179842561000    -3.084242612000    12.000000000000
         C            0.121419144000    -2.756528409000    -3.379849294000    12.000000000000
         C           -2.121648941000    -2.212505182000    -4.001818041000    12.000000000000
         C           -0.994059172000    -3.009760878000    -4.158341024000    12.000000000000
         H            1.012625177000    -1.553963487000    -1.853609298000     1.007825032230
         H           -3.000607808000    -0.548194043000    -2.954537465000     1.007825032230
         H            1.008355995000    -3.369512480000    -3.486880921000     1.007825032230
         H           -3.004019155000    -2.395915347000    -4.603483590000     1.007825032230
         H           -0.989191554000    -3.818226068000    -4.877893524000     1.007825032230
         O            1.111583790000    -0.117804107000     1.444639645000    15.994914619570
         C            1.004331660000     0.927761371000     2.304242421000    12.000000000000
         C           -0.127353113000     1.722610697000     2.451408136000    12.000000000000
         C            2.130932039000     1.179842561000     3.084242612000    12.000000000000
         C           -0.121419144000     2.756528409000     3.379849294000    12.000000000000
         C            2.121648941000     2.212505182000     4.001818041000    12.000000000000
         C            0.994059172000     3.009760878000     4.158341024000    12.000000000000
         H           -1.012625177000     1.553963487000     1.853609298000     1.007825032230
         H            3.000607808000     0.548194043000     2.954537465000     1.007825032230
         H           -1.008355995000     3.369512480000     3.486880921000     1.007825032230
         H            3.004019155000     2.395915347000     4.603483590000     1.007825032230
         H            0.989191554000     3.818226068000     4.877893524000     1.007825032230
         C           -0.019317159000     0.444222139000    -0.616943072000    12.000000000000
         H            0.929143975000     0.382932822000    -1.158293013000     1.007825032230
         H           -0.165214764000     1.485797219000    -0.330080129000     1.007825032230
         C            0.019317159000    -0.444222139000     0.616943072000    12.000000000000
         H           -0.929143975000    -0.382932822000     1.158293013000     1.007825032230
         H            0.165214764000    -1.485797219000     0.330080129000     1.007825032230

  Charge       = 0
  Multiplicity = 1
  Basis Set: JUN-CC-PVDZ
    Blend: JUN-CC-PVDZ
  Basis Set: (JUN-CC-PVDZ AUX)
    Blend: JUN-CC-PVDZ-JKFIT

    Orbital Energies [Eh]
    ---------------------

    Doubly Occupied:

       1A    -20.598296     2A    -20.598295     3A    -11.310181
       4A    -11.310181     5A    -11.298842     6A    -11.298213
       7A    -11.248569     8A    -11.248568     9A    -11.246871
      10A    -11.246871    11A    -11.240638    12A    -11.240637
      13A    -11.235454    14A    -11.235454    15A    -11.234370
      16A    -11.234369    17A     -1.434550    18A     -1.425265
      19A     -1.160120    20A     -1.158003    21A     -1.060675
      22A     -1.027650    23A     -1.025634    24A     -1.021223
      25A     -0.986393    26A     -0.897551    27A     -0.843014
      28A     -0.840136    29A     -0.818615    30A     -0.805147
      31A     -0.741951    32A     -0.727347    33A     -0.694278
      34A     -0.675953    35A     -0.674272    36A     -0.666881
      37A     -0.647608    38A     -0.636695    39A     -0.618356
      40A     -0.606485    41A     -0.592425    42A     -0.589118
      43A     -0.583914    44A     -0.572817    45A     -0.541905
      46A     -0.525671    47A     -0.520564    48A     -0.519151
      49A     -0.504150    50A     -0.492664    51A     -0.483542
      52A     -0.480464    53A     -0.458522    54A     -0.345792
      55A     -0.345108    56A     -0.320341    57A     -0.313193

  @DF-RHF Final Energy:  -688.07287944695349

   => Energetics <=

    Nuclear Repulsion Energy =            987.9458454324242211
    One-Electron Energy =               -2895.6195508666287424
    Two-Electron Energy =                1219.6008259872510280
    Total Energy =                       -688.0728794469534932
 Dipole X            :         -0.0000000           -0.0000000           -0.0000000
 Dipole Y            :         -0.0000000           -0.0000000           -0.0000000
 Dipole Z            :          0.0000000            0.0000000            0.0000000
 Magnitude           :                                                    0.0000000
  Basis Set: (JUN-CC-PVDZ AUX)
    Blend: JUN-CC-PVDZ-JKFIT
  Basis Set: JUN-CC-PVDZ
    Blend: JUN-CC-PVDZ

    SAPT Results
  --------------------------------------------------------------------------------------------------------
    Electrostatics                  0.81268651 [mEh]       0.50996848 [kcal/mol]       2.13370813 [kJ/mol]
      Elst10,r                      0.81268651 [mEh]       0.50996848 [kcal/mol]       2.13370813 [kJ/mol]

    Exchange                        1.62003439 [mEh]       1.01658693 [kcal/mol]       4.25339970 [kJ/mol]
      Exch10                        1.62003439 [mEh]       1.01658693 [kcal/mol]       4.25339970 [kJ/mol]
      Exch10(S^2)                   1.61988295 [mEh]       1.01649189 [kcal/mol]       4.25300209 [kJ/mol]

    Induction                      -1.68872387 [mEh]      -1.05969023 [kcal/mol]      -4.43374391 [kJ/mol]
      Ind20,r                      -3.83478242 [mEh]      -2.40636230 [kcal/mol]     -10.06821984 [kJ/mol]
      Exch-Ind20,r                  2.48764677 [mEh]       1.56102192 [kcal/mol]       6.53131570 [kJ/mol]
      delta HF,r (2)               -0.34158823 [mEh]      -0.21434985 [kcal/mol]      -0.89683976 [kJ/mol]
      Induction (A<-B)             -0.84436193 [mEh]      -0.52984511 [kcal/mol]      -2.21687195 [kJ/mol]
      Induction (B<-A)             -0.84436193 [mEh]      -0.52984511 [kcal/mol]      -2.21687195 [kJ/mol]

    Dispersion                     -1.21908584 [mEh]      -0.76498791 [kcal/mol]      -3.20070942 [kJ/mol]
      Disp20                       -1.29308979 [mEh]      -0.81142609 [kcal/mol]      -3.39500677 [kJ/mol]
      Exch-Disp20                   0.07400395 [mEh]       0.04643818 [kcal/mol]       0.19429735 [kJ/mol]

  Total HF                          0.74399702 [mEh]       0.46686518 [kcal/mol]       1.95336392 [kJ/mol]
  Total SAPT0                      -0.47508881 [mEh]      -0.29812273 [kcal/mol]      -1.24734550 [kJ/mol]

  --------------------------------------------------------------------------------------------------------

*** Psi4 exiting successfully. Buy a developer a beer!
