                               Psi4 1.7 release

  ==> Input File <==

--------------------------------------------------------------------------
memory 12000 MiB
mol = psi4.core.Molecule.from_arrays(
    elez=[8,6,6,6,6,6,6,1,1,1,1,1,8,6,6,6,6,6,6,1,1,1,1,1,6,1,1,6,1,1],
    fragment_separators=[12, 24],
    fix_com=True,
    fix_orientation=True,
    fix_symmetry='c1',
    fragment_multiplicities=[2, 2, 1],
    molecular_charge=0,
    molecular_multiplicity=1,
    geom= [
       -1.759924267,     -0.472931580,      1.639444033,
       -2.428152444,     -0.160289703,      0.499196379,
       -1.905728201,     -0.281100651,     -0.783625909,
       -3.736893335,      0.283526749,      0.671258420,
       -2.694718523,      0.048172686,     -1.878577627,
       -4.510313385,      0.604694332,     -0.427820104,
       -3.994298180,      0.492787627,     -1.713027091,
       -0.899768826,     -0.639459579,     -0.946042794,
       -4.125280366,      0.367497023,      1.678270793,
       -2.278467547,     -0.051216154,     -2.873975149,
       -5.526509966,      0.948087767,     -0.278862435,
       -4.600368200,      0.747697564,     -2.572676390,

        1.759924267,      0.472931580,      1.639444033,
        2.428152444,      0.160289703,      0.499196379,
        1.905728201,      0.281100651,     -0.783625909,
        3.736893335,     -0.283526749,      0.671258420,
        2.694718523,     -0.048172686,     -1.878577627,
        4.510313385,     -0.604694332,     -0.427820104,
        3.994298180,     -0.492787627,     -1.713027091,
        0.899768826,      0.639459579,     -0.946042794,
        4.125280366,     -0.367497023,      1.678270793,
        2.278467547,      0.051216154,     -2.873975149,
        5.526509966,     -0.948087767,     -0.278862435,
        4.600368200,     -0.747697564,     -2.572676390,

        0.364615000,      0.667122437,      1.594124253,
        0.110684937,      1.214237201,      2.502075233,
        0.061902353,      1.283358032,      0.743784751,
       -0.364615000,     -0.667122437,      1.594124253,
       -0.061902353,     -1.283358032,      0.743784751,
       -0.110684937,     -1.214237201,      2.502075233])
activate(mol)

set {
basis jun-cc-pvdz
scf_type df
guess sad
freeze_core true
fisapt_do_plot true
}
energy('fisapt0')
--------------------------------------------------------------------------

    Molecular point group: c1

    Geometry (in Angstrom), charge = 0, multiplicity = 1:

       Center              X                  Y                   Z               Mass
    ------------   -----------------  -----------------  -----------------  -----------------
         O           -1.759924267000    -0.472931580000     1.639444033000    15.994914619570
         C           -2.428152444000    -0.160289703000     0.499196379000    12.000000000000
         C           -1.905728201000    -0.281100651000    -0.783625909000    12.000000000000
         C           -3.736893335000     0.283526749000     0.671258420000    12.000000000000
         C           -2.694718523000     0.048172686000    -1.878577627000    12.000000000000
         C           -4.510313385000     0.604694332000    -0.427820104000    12.000000000000
         C           -3.994298180000     0.492787627000    -1.713027091000    12.000000000000
         H           -0.899768826000    -0.639459579000    -0.946042794000     1.007825032230
         H           -4.125280366000     0.367497023000     1.678270793000     1.007825032230
         H           -2.278467547000    -0.051216154000    -2.873975149000     1.007825032230
         H           -5.526509966000     0.948087767000    -0.278862435000     1.007825032230
         H           -4.600368200000     0.747697564000    -2.572676390000     1.007825032230
         O            1.759924267000     0.472931580000     1.639444033000    15.994914619570
         C            2.428152444000     0.160289703000     0.499196379000    12.000000000000
         C            1.905728201000     0.281100651000    -0.783625909000    12.000000000000
         C            3.736893335000    -0.283526749000     0.671258420000    12.000000000000
         C            2.694718523000    -0.048172686000    -1.878577627000    12.000000000000
         C            4.510313385000    -0.604694332000    -0.427820104000    12.000000000000
         C            3.994298180000    -0.492787627000    -1.713027091000    12.000000000000
         H            0.899768826000     0.639459579000    -0.946042794000     1.007825032230
         H            4.125280366000    -0.367497023000     1.678270793000     1.007825032230
         H            2.278467547000     0.051216154000    -2.873975149000     1.007825032230
         H            5.526509966000    -0.948087767000    -0.278862435000     1.007825032230
         H            4.600368200000    -0.747697564000    -2.572676390000     1.007825032230
         C            0.364615000000     0.667122437000     1.594124253000    12.000000000000
         H            0.110684937000     1.214237201000     2.502075233000     1.007825032230
         H            0.061902353000     1.283358032000     0.743784751000     1.007825032230
         C           -0.364615000000    -0.667122437000     1.594124253000    12.000000000000
         H           -0.061902353000    -1.283358032000     0.743784751000     1.007825032230
         H           -0.110684937000    -1.214237201000     2.502075233000     1.007825032230

  Charge       = 0
  Multiplicity = 1
  Basis Set: JUN-CC-PVDZ
    Blend: JUN-CC-PVDZ
  Basis Set: (JUN-CC-PVDZ AUX)
    Blend: JUN-CC-PVDZ-JKFIT

    Orbital Energies [Eh]
    ---------------------

    Doubly Occupied:

       1A    -20.597407     2A    -20.597406     3A    -11.310825
       4A    -11.310825     5A    -11.298358     6A    -11.297729
       7A    -11.250360     8A    -11.250360     9A    -11.248255
      10A    -11.248255    11A    -11.241459    12A    -11.241457
      13A    -11.236570    14A    -11.236569    15A    -11.235955
      16A    -11.235955    17A     -1.433800    18A     -1.424354
      19A     -1.161955    20A     -1.159304    21A     -1.060497
      22A     -1.028704    23A     -1.028574    24A     -1.021362
      25A     -0.987235    26A     -0.898400    27A     -0.845612
      28A     -0.840003    29A     -0.821917    30A     -0.803473
      31A     -0.741455    32A     -0.732274    33A     -0.686214
      34A     -0.682692    35A     -0.677589    36A     -0.666002
      37A     -0.643006    38A     -0.637937    39A     -0.621047
      40A     -0.605012    41A     -0.598726    42A     -0.593662
      43A     -0.590774    44A     -0.565775    45A     -0.538423
      46A     -0.528373    47A     -0.522443    48A     -0.518725
      49A     -0.508869    50A     -0.490129    51A     -0.487904
      52A     -0.475702    53A     -0.459540    54A     -0.347642
      55A     -0.346690    56A     -0.322609    57A     -0.314288

  @DF-RHF Final Energy:  -688.07154386966624

   => Energetics <=

    Nuclear Repulsion Energy =           1014.0626431902518334
    One-Electron Energy =               -2947.7554965380177237
    Two-Electron Energy =                1245.6213094780994197
    Total Energy =                       -688.0715438696663568
 Dipole X            :         -0.0000000           -0.0000000           -0.0000000
 Dipole Y            :         -0.0000000            0.0000000           -0.0000000
 Dipole Z            :          2.7978704           -3.2605478           -0.4626774
 Magnitude           :                                                    0.4626774
  Basis Set: (JUN-CC-PVDZ AUX)
    Blend: JUN-CC-PVDZ-JKFIT
  Basis Set: JUN-CC-PVDZ
    Blend: JUN-CC-PVDZ

    SAPT Results
  --------------------------------------------------------------------------------------------------------
    Electrostatics                  0.57604912 [mEh]       0.36147628 [kcal/mol]       1.51241677 [kJ/mol]
      Elst10,r                      0.57604912 [mEh]       0.36147628 [kcal/mol]       1.51241677 [kJ/mol]

    Exchange                        4.23710249 [mEh]       2.65882196 [kcal/mol]      11.12451106 [kJ/mol]
      Exch10                        4.23710249 [mEh]       2.65882196 [kcal/mol]      11.12451106 [kJ/mol]
      Exch10(S^2)                   4.23073833 [mEh]       2.65482838 [kcal/mol]      11.10780196 [kJ/mol]

    Induction                      -2.05716997 [mEh]      -1.29089364 [kcal/mol]      -5.40109900 [kJ/mol]
      Ind20,r                      -4.31164335 [mEh]      -2.70559705 [kcal/mol]     -11.32021805 [kJ/mol]
      Exch-Ind20,r                  2.79810275 [mEh]       1.75583599 [kcal/mol]       7.34641777 [kJ/mol]
      delta HF,r (2)               -0.54362937 [mEh]      -0.34113258 [kcal/mol]      -1.42729872 [kJ/mol]
      Induction (A<-B)             -1.02858498 [mEh]      -0.64544682 [kcal/mol]      -2.70054950 [kJ/mol]
      Induction (B<-A)             -1.02858498 [mEh]      -0.64544682 [kcal/mol]      -2.70054950 [kJ/mol]

    Dispersion                     -3.19520776 [mEh]      -2.00502314 [kcal/mol]      -8.38901683 [kJ/mol]
      Disp20                       -3.45120739 [mEh]      -2.16566533 [kcal/mol]      -9.06114376 [kJ/mol]
      Exch-Disp20                   0.25599963 [mEh]       0.16064219 [kcal/mol]       0.67212693 [kJ/mol]

  Total HF                          2.75598165 [mEh]       1.72940460 [kcal/mol]       7.23582883 [kJ/mol]
  Total SAPT0                      -0.43922611 [mEh]      -0.27561855 [kcal/mol]      -1.15318800 [kJ/mol]

  --------------------------------------------------------------------------------------------------------

*** Psi4 exiting successfully. Buy a developer a beer!
