                               Psi4 1.7 release

  ==> Input File <==

--------------------------------------------------------------------------
memory 12000 MiB
mol = psi4.core.Molecule.from_arrays(
    elez=[8,6,6,6,6,6,6,1,1,1,1,1,8,6,6,6,6,6,6,1,1,1,1,1,6,1,1,6,1,1],
    fragment_separators=[12, 24],
    fix_com=True,
    fix_orientation=True,
    fix_symmetry='c1',
    fragment_multiplicities=[2, 2, 1],
    molecular_charge=0,
    molecular_multiplicity=1,
    geom= [
       -1.578805491,      0.810198587,      0.000000000,
       -2.910138188,      0.557174719,      0.000000000,
       -3.743437659,      1.673667716,      0.000000000,
       -3.460315875,     -0.719727095,      0.000000000,
       -5.115026231,      1.510325480,      0.000000000,
       -4.842626548,     -0.866584214,      0.000000000,
       -5.675809255,      0.237760210,      0.000000000,
       -3.291432781,      2.657611877,      0.000000000,
       -2.829636616,     -1.597587855,      0.000000000,
       -5.754120995,      2.385125558,      0.000000000,
       -5.265047744,     -1.864407986,      0.000000000,
       -6.750994526,      0.112693614,      0.000000000,

        1.578805491,     -0.810198587,      0.000000000,
        2.910138188,     -0.557174719,      0.000000000,
        3.743437659,     -1.673667716,      0.000000000,
        3.460315875,      0.719727095,      0.000000000,
        5.115026231,     -1.510325480,      0.000000000,
        4.842626548,      0.866584214,      0.000000000,
        5.675809255,     -0.237760210,      0.000000000,
        3.291432781,     -2.657611877,      0.000000000,
        2.829636616,      1.597587855,      0.000000000,
        5.754120995,     -2.385125558,      0.000000000,
        5.265047744,      1.864407986,      0.000000000,
        6.750994526,     -0.112693614,      0.000000000,

       -0.698156975,     -0.285846192,      0.000000000,
       -0.846502280,     -0.910104622,      0.888024454,
       -0.846502280,     -0.910104622,     -0.888024454,
        0.698156975,      0.285846192,      0.000000000,
        0.846502280,      0.910104622,     -0.888024454,
        0.846502280,      0.910104622,      0.888024454])
activate(mol)

set {
basis jun-cc-pvdz
scf_type df
guess sad
freeze_core true
fisapt_do_plot true
}
energy('fisapt0')
--------------------------------------------------------------------------

    Molecular point group: c1

    Geometry (in Angstrom), charge = 0, multiplicity = 1:

       Center              X                  Y                   Z               Mass
    ------------   -----------------  -----------------  -----------------  -----------------
         O           -1.578805491000     0.810198587000     0.000000000000    15.994914619570
         C           -2.910138188000     0.557174719000     0.000000000000    12.000000000000
         C           -3.743437659000     1.673667716000     0.000000000000    12.000000000000
         C           -3.460315875000    -0.719727095000     0.000000000000    12.000000000000
         C           -5.115026231000     1.510325480000     0.000000000000    12.000000000000
         C           -4.842626548000    -0.866584214000     0.000000000000    12.000000000000
         C           -5.675809255000     0.237760210000     0.000000000000    12.000000000000
         H           -3.291432781000     2.657611877000     0.000000000000     1.007825032230
         H           -2.829636616000    -1.597587855000     0.000000000000     1.007825032230
         H           -5.754120995000     2.385125558000     0.000000000000     1.007825032230
         H           -5.265047744000    -1.864407986000     0.000000000000     1.007825032230
         H           -6.750994526000     0.112693614000     0.000000000000     1.007825032230
         O            1.578805491000    -0.810198587000     0.000000000000    15.994914619570
         C            2.910138188000    -0.557174719000     0.000000000000    12.000000000000
         C            3.743437659000    -1.673667716000     0.000000000000    12.000000000000
         C            3.460315875000     0.719727095000     0.000000000000    12.000000000000
         C            5.115026231000    -1.510325480000     0.000000000000    12.000000000000
         C            4.842626548000     0.866584214000     0.000000000000    12.000000000000
         C            5.675809255000    -0.237760210000     0.000000000000    12.000000000000
         H            3.291432781000    -2.657611877000     0.000000000000     1.007825032230
         H            2.829636616000     1.597587855000     0.000000000000     1.007825032230
         H            5.754120995000    -2.385125558000     0.000000000000     1.007825032230
         H            5.265047744000     1.864407986000     0.000000000000     1.007825032230
         H            6.750994526000    -0.112693614000     0.000000000000     1.007825032230
         C           -0.698156975000    -0.285846192000     0.000000000000    12.000000000000
         H           -0.846502280000    -0.910104622000     0.888024454000     1.007825032230
         H           -0.846502280000    -0.910104622000    -0.888024454000     1.007825032230
         C            0.698156975000     0.285846192000     0.000000000000    12.000000000000
         H            0.846502280000     0.910104622000    -0.888024454000     1.007825032230
         H            0.846502280000     0.910104622000     0.888024454000     1.007825032230

  Charge       = 0
  Multiplicity = 1
  Basis Set: JUN-CC-PVDZ
    Blend: JUN-CC-PVDZ
  Basis Set: (JUN-CC-PVDZ AUX)
    Blend: JUN-CC-PVDZ-JKFIT

    Orbital Energies [Eh]
    ---------------------

    Doubly Occupied:

       1A    -20.598093     2A    -20.598092     3A    -11.308524
       4A    -11.308524     5A    -11.299541     6A    -11.298876
       7A    -11.247271     8A    -11.247270     9A    -11.246074
      10A    -11.246074    11A    -11.239146    12A    -11.239146
      13A    -11.235112    14A    -11.235111    15A    -11.233652
      16A    -11.233652    17A     -1.436672    18A     -1.427077
      19A     -1.160204    20A     -1.156373    21A     -1.065739
      22A     -1.027063    23A     -1.025344    24A     -1.016452
      25A     -0.981282    26A     -0.893584    27A     -0.842762
      28A     -0.834791    29A     -0.811649    30A     -0.809415
      31A     -0.745446    32A     -0.719334    33A     -0.704689
      34A     -0.677422    35A     -0.675183    36A     -0.659388
      37A     -0.651185    38A     -0.639078    39A     -0.621664
      40A     -0.615746    41A     -0.593065    42A     -0.591718
      43A     -0.576813    44A     -0.549400    45A     -0.545623
      46A     -0.520662    47A     -0.520603    48A     -0.510932
      49A     -0.510473    50A     -0.488630    51A     -0.482553
      52A     -0.474644    53A     -0.467833    54A     -0.344467
      55A     -0.344104    56A     -0.318033    57A     -0.315292

  @DF-RHF Final Energy:  -688.08045900487082

   => Energetics <=

    Nuclear Repulsion Energy =            962.2192385718401511
    One-Electron Energy =               -2844.2663098633242953
    Two-Electron Energy =                1193.9666122866133264
    Total Energy =                       -688.0804590048708178
 Dipole X            :         -0.0000000           -0.0000000           -0.0000000
 Dipole Y            :         -0.0000000            0.0000000           -0.0000000
 Dipole Z            :          0.0000000            0.0000000            0.0000000
 Magnitude           :                                                    0.0000000
  Basis Set: (JUN-CC-PVDZ AUX)
    Blend: JUN-CC-PVDZ-JKFIT
  Basis Set: JUN-CC-PVDZ
    Blend: JUN-CC-PVDZ

    SAPT Results
  --------------------------------------------------------------------------------------------------------
    Electrostatics                  0.46206882 [mEh]       0.28995256 [kcal/mol]       1.21316152 [kJ/mol]
      Elst10,r                      0.46206882 [mEh]       0.28995256 [kcal/mol]       1.21316152 [kJ/mol]

    Exchange                        1.28106519 [mEh]       0.80388054 [kcal/mol]       3.36343618 [kJ/mol]
      Exch10                        1.28106519 [mEh]       0.80388054 [kcal/mol]       3.36343618 [kJ/mol]
      Exch10(S^2)                   1.28109088 [mEh]       0.80389667 [kcal/mol]       3.36350365 [kJ/mol]

    Induction                      -1.00997181 [mEh]      -0.63376688 [kcal/mol]      -2.65168061 [kJ/mol]
      Ind20,r                      -2.52311988 [mEh]      -1.58328163 [kcal/mol]      -6.62445033 [kJ/mol]
      Exch-Ind20,r                  1.68546556 [mEh]       1.05764560 [kcal/mol]       4.42518921 [kJ/mol]
      delta HF,r (2)               -0.17231748 [mEh]      -0.10813085 [kcal/mol]      -0.45241948 [kJ/mol]
      Induction (A<-B)             -0.50498590 [mEh]      -0.31688344 [kcal/mol]      -1.32584031 [kJ/mol]
      Induction (B<-A)             -0.50498590 [mEh]      -0.31688344 [kcal/mol]      -1.32584030 [kJ/mol]

    Dispersion                     -0.75119432 [mEh]      -0.47138156 [kcal/mol]      -1.97226043 [kJ/mol]
      Disp20                       -0.81266670 [mEh]      -0.50995605 [kcal/mol]      -2.13365612 [kJ/mol]
      Exch-Disp20                   0.06147237 [mEh]       0.03857450 [kcal/mol]       0.16139569 [kJ/mol]

  Total HF                          0.73316220 [mEh]       0.46006623 [kcal/mol]       1.92491709 [kJ/mol]
  Total SAPT0                      -0.01803212 [mEh]      -0.01131533 [kcal/mol]      -0.04734333 [kJ/mol]

  --------------------------------------------------------------------------------------------------------

*** Psi4 exiting successfully. Buy a developer a beer!
