                               Psi4 1.7 release

  ==> Input File <==

--------------------------------------------------------------------------
memory 12000 MiB
mol = psi4.core.Molecule.from_arrays(
    elez=[8,6,6,6,6,6,6,1,1,1,1,1,8,6,6,6,6,6,6,1,1,1,1,1,6,1,1,6,1,1],
    fragment_separators=[12, 24],
    fix_com=True,
    fix_orientation=True,
    fix_symmetry='c1',
    fragment_multiplicities=[2, 2, 1],
    molecular_charge=0,
    molecular_multiplicity=1,
    geom= [
       -1.660986040,      1.727705153,     -0.676968730,
       -2.578764571,      0.729280299,     -0.737360409,
       -3.524156464,      0.846210886,     -1.753815284,
       -2.631600132,     -0.355436296,      0.131575305,
       -4.511734697,     -0.109348201,     -1.895545150,
       -3.632446631,     -1.307259941,     -0.023118056,
       -4.574657693,     -1.195011745,     -1.029967967,
       -3.464724603,      1.699356386,     -2.417845879,
       -1.907375366,     -0.477348079,      0.925095860,
       -5.241532694,     -0.004945973,     -2.689766785,
       -3.664535572,     -2.149004616,      0.658662950,
       -5.348772006,     -1.943437273,     -1.142800483,

        1.407122883,      0.796024640,      0.954331943,
        2.538366728,      0.060181508,      0.827280231,
        2.838703742,     -0.722883529,     -0.281333644,
        3.427554055,      0.119734636,      1.898114858,
        4.028501151,     -1.441357855,     -0.306581877,
        4.605690543,     -0.600035090,      1.857031585,
        4.915835663,     -1.387058721,      0.753410739,
        2.162528673,     -0.782200568,     -1.123072251,
        3.172090065,      0.736706666,      2.750293922,
        4.255943779,     -2.049489771,     -1.174018074,
        5.290389315,     -0.546209760,      2.695217486,
        5.840231889,     -1.949388968,      0.723542545,

       -0.660788857,      1.682983413,      0.312243558,
       -0.295356946,      2.704577995,      0.416784566,
       -1.063324795,      1.372658323,      1.280332297,
        0.479879669,      0.777291116,     -0.103150025,
        0.120065135,     -0.240469631,     -0.288983282,
        0.930360369,      1.153923388,     -1.027996133])
activate(mol)

set {
basis jun-cc-pvdz
scf_type df
guess sad
freeze_core true
fisapt_do_plot true
}
energy('fisapt0')
--------------------------------------------------------------------------

    Molecular point group: c1

    Geometry (in Angstrom), charge = 0, multiplicity = 1:

       Center              X                  Y                   Z               Mass
    ------------   -----------------  -----------------  -----------------  -----------------
         O           -1.660986040000     1.727705153000    -0.676968730000    15.994914619570
         C           -2.578764571000     0.729280299000    -0.737360409000    12.000000000000
         C           -3.524156464000     0.846210886000    -1.753815284000    12.000000000000
         C           -2.631600132000    -0.355436296000     0.131575305000    12.000000000000
         C           -4.511734697000    -0.109348201000    -1.895545150000    12.000000000000
         C           -3.632446631000    -1.307259941000    -0.023118056000    12.000000000000
         C           -4.574657693000    -1.195011745000    -1.029967967000    12.000000000000
         H           -3.464724603000     1.699356386000    -2.417845879000     1.007825032230
         H           -1.907375366000    -0.477348079000     0.925095860000     1.007825032230
         H           -5.241532694000    -0.004945973000    -2.689766785000     1.007825032230
         H           -3.664535572000    -2.149004616000     0.658662950000     1.007825032230
         H           -5.348772006000    -1.943437273000    -1.142800483000     1.007825032230
         O            1.407122883000     0.796024640000     0.954331943000    15.994914619570
         C            2.538366728000     0.060181508000     0.827280231000    12.000000000000
         C            2.838703742000    -0.722883529000    -0.281333644000    12.000000000000
         C            3.427554055000     0.119734636000     1.898114858000    12.000000000000
         C            4.028501151000    -1.441357855000    -0.306581877000    12.000000000000
         C            4.605690543000    -0.600035090000     1.857031585000    12.000000000000
         C            4.915835663000    -1.387058721000     0.753410739000    12.000000000000
         H            2.162528673000    -0.782200568000    -1.123072251000     1.007825032230
         H            3.172090065000     0.736706666000     2.750293922000     1.007825032230
         H            4.255943779000    -2.049489771000    -1.174018074000     1.007825032230
         H            5.290389315000    -0.546209760000     2.695217486000     1.007825032230
         H            5.840231889000    -1.949388968000     0.723542545000     1.007825032230
         C           -0.660788857000     1.682983413000     0.312243558000    12.000000000000
         H           -0.295356946000     2.704577995000     0.416784566000     1.007825032230
         H           -1.063324795000     1.372658323000     1.280332297000     1.007825032230
         C            0.479879669000     0.777291116000    -0.103150025000    12.000000000000
         H            0.120065135000    -0.240469631000    -0.288983282000     1.007825032230
         H            0.930360369000     1.153923388000    -1.027996133000     1.007825032230

  Charge       = 0
  Multiplicity = 1
  Basis Set: JUN-CC-PVDZ
    Blend: JUN-CC-PVDZ
  Basis Set: (JUN-CC-PVDZ AUX)
    Blend: JUN-CC-PVDZ-JKFIT

    Orbital Energies [Eh]
    ---------------------

    Doubly Occupied:

       1A    -20.599238     2A    -20.597026     3A    -11.309635
       4A    -11.309365     5A    -11.299174     6A    -11.298187
       7A    -11.248260     8A    -11.247930     9A    -11.246753
      10A    -11.246633    11A    -11.240305    12A    -11.239966
      13A    -11.235827    14A    -11.235060    15A    -11.234377
      16A    -11.234138    17A     -1.435959    18A     -1.425981
      19A     -1.160387    20A     -1.157410    21A     -1.063386
      22A     -1.027562    23A     -1.025835    24A     -1.018904
      25A     -0.983897    26A     -0.895623    27A     -0.842641
      28A     -0.838259    29A     -0.816340    30A     -0.806190
      31A     -0.743362    32A     -0.726595    33A     -0.691027
      34A     -0.680428    35A     -0.674517    36A     -0.662075
      37A     -0.657511    38A     -0.631912    39A     -0.620979
      40A     -0.613418    41A     -0.594027    42A     -0.591850
      43A     -0.582691    44A     -0.556253    45A     -0.542928
      46A     -0.525026    47A     -0.519346    48A     -0.516413
      49A     -0.507386    50A     -0.488759    51A     -0.483914
      52A     -0.471784    53A     -0.468538    54A     -0.345361
      55A     -0.344814    56A     -0.318357    57A     -0.315712

  @DF-RHF Final Energy:  -688.07679309143350

   => Energetics <=

    Nuclear Repulsion Energy =            984.7046962597460151
    One-Electron Energy =               -2889.1725085806219795
    Two-Electron Energy =                1216.3910192294424633
    Total Energy =                       -688.0767930914335011
 Dipole X            :         -5.7262621            5.8153998            0.0891377
 Dipole Y            :         -0.9252407            0.5637230           -0.3615177
 Dipole Z            :          0.5178912           -0.5724819           -0.0545907
 Magnitude           :                                                    0.3763253
  Basis Set: (JUN-CC-PVDZ AUX)
    Blend: JUN-CC-PVDZ-JKFIT
  Basis Set: JUN-CC-PVDZ
    Blend: JUN-CC-PVDZ

    SAPT Results
  --------------------------------------------------------------------------------------------------------
    Electrostatics                  0.83293376 [mEh]       0.52267382 [kcal/mol]       2.18686728 [kJ/mol]
      Elst10,r                      0.83293376 [mEh]       0.52267382 [kcal/mol]       2.18686728 [kJ/mol]

    Exchange                        1.31659930 [mEh]       0.82617853 [kcal/mol]       3.45673098 [kJ/mol]
      Exch10                        1.31659930 [mEh]       0.82617853 [kcal/mol]       3.45673098 [kJ/mol]
      Exch10(S^2)                   1.31664181 [mEh]       0.82620521 [kcal/mol]       3.45684260 [kJ/mol]

    Induction                      -1.35694501 [mEh]      -0.85149585 [kcal/mol]      -3.56265863 [kJ/mol]
      Ind20,r                      -3.05610956 [mEh]      -1.91773770 [kcal/mol]      -8.02381454 [kJ/mol]
      Exch-Ind20,r                  1.95960538 [mEh]       1.22967094 [kcal/mol]       5.14494322 [kJ/mol]
      delta HF,r (2)               -0.26044083 [mEh]      -0.16342909 [kcal/mol]      -0.68378731 [kJ/mol]
      Induction (A<-B)             -0.77729893 [mEh]      -0.48776244 [kcal/mol]      -2.04079806 [kJ/mol]
      Induction (B<-A)             -0.57964608 [mEh]      -0.36373340 [kcal/mol]      -1.52186057 [kJ/mol]

    Dispersion                     -1.14493951 [mEh]      -0.71846039 [kcal/mol]      -3.00603828 [kJ/mol]
      Disp20                       -1.21671749 [mEh]      -0.76350175 [kcal/mol]      -3.19449133 [kJ/mol]
      Exch-Disp20                   0.07177797 [mEh]       0.04504136 [kcal/mol]       0.18845305 [kJ/mol]

  Total HF                          0.79258804 [mEh]       0.49735651 [kcal/mol]       2.08093963 [kJ/mol]
  Total SAPT0                      -0.35235147 [mEh]      -0.22110388 [kcal/mol]      -0.92509865 [kJ/mol]

  --------------------------------------------------------------------------------------------------------

*** Psi4 exiting successfully. Buy a developer a beer!
