                               Psi4 1.7 release

  ==> Input File <==

--------------------------------------------------------------------------
memory 12000 MiB
mol = psi4.core.Molecule.from_arrays(
    elez=[8,6,6,6,6,6,6,1,1,1,1,1,8,6,6,6,6,6,6,1,1,1,1,1,6,1,1,6,1,1],
    fragment_separators=[12, 24],
    fix_com=True,
    fix_orientation=True,
    fix_symmetry='c1',
    fragment_multiplicities=[2, 2, 1],
    molecular_charge=0,
    molecular_multiplicity=1,
    geom= [
       -1.298211073,      1.069146181,     -0.031432760,
       -2.362291644,      0.265614244,     -0.265700981,
       -2.738530128,     -0.795123940,      0.550841567,
       -3.105670814,      0.559642853,     -1.407011591,
       -3.854785352,     -1.552716473,      0.215798772,
       -4.212649957,     -0.201753114,     -1.724979252,
       -4.596495468,     -1.265253698,     -0.915618810,
       -2.176825122,     -1.038370535,      1.442023161,
       -2.793024567,      1.388798469,     -2.029123529,
       -4.140400945,     -2.378133152,      0.857092561,
       -4.782573540,      0.035365084,     -2.615349171,
       -5.464647087,     -1.860653878,     -1.167520952,

        1.568929418,      1.544611669,      0.023837713,
        2.456053314,      0.525234558,      0.126639388,
        3.235606499,      0.291964633,     -1.004934530,
        2.638727453,     -0.261272061,      1.260052813,
        4.187111169,     -0.708749552,     -0.998113557,
        3.601621500,     -1.263327092,      1.252077990,
        4.379277830,     -1.495437151,      0.131897954,
        3.074472678,      0.911531008,     -1.877984459,
        2.045123853,     -0.109210074,      2.150661072,
        4.785403999,     -0.877695764,     -1.885515790,
        3.735685255,     -1.868633627,      2.140834051,
        5.124532464,     -2.280642897,      0.134249249,

       -0.488934144,      0.794268058,      1.086043372,
       -1.059332758,      0.920687850,      2.015752748,
       -0.118878006,     -0.235784661,      1.045887261,
        0.659709772,      1.772217814,      1.075007525,
        0.270336376,      2.776505316,      0.905791046,
        1.166412478,      1.765118076,      2.044908563])
activate(mol)

set {
basis jun-cc-pvdz
scf_type df
guess sad
freeze_core true
fisapt_do_plot true
}
energy('fisapt0')
--------------------------------------------------------------------------

    Molecular point group: c1

    Geometry (in Angstrom), charge = 0, multiplicity = 1:

       Center              X                  Y                   Z               Mass
    ------------   -----------------  -----------------  -----------------  -----------------
         O           -1.298211073000     1.069146181000    -0.031432760000    15.994914619570
         C           -2.362291644000     0.265614244000    -0.265700981000    12.000000000000
         C           -2.738530128000    -0.795123940000     0.550841567000    12.000000000000
         C           -3.105670814000     0.559642853000    -1.407011591000    12.000000000000
         C           -3.854785352000    -1.552716473000     0.215798772000    12.000000000000
         C           -4.212649957000    -0.201753114000    -1.724979252000    12.000000000000
         C           -4.596495468000    -1.265253698000    -0.915618810000    12.000000000000
         H           -2.176825122000    -1.038370535000     1.442023161000     1.007825032230
         H           -2.793024567000     1.388798469000    -2.029123529000     1.007825032230
         H           -4.140400945000    -2.378133152000     0.857092561000     1.007825032230
         H           -4.782573540000     0.035365084000    -2.615349171000     1.007825032230
         H           -5.464647087000    -1.860653878000    -1.167520952000     1.007825032230
         O            1.568929418000     1.544611669000     0.023837713000    15.994914619570
         C            2.456053314000     0.525234558000     0.126639388000    12.000000000000
         C            3.235606499000     0.291964633000    -1.004934530000    12.000000000000
         C            2.638727453000    -0.261272061000     1.260052813000    12.000000000000
         C            4.187111169000    -0.708749552000    -0.998113557000    12.000000000000
         C            3.601621500000    -1.263327092000     1.252077990000    12.000000000000
         C            4.379277830000    -1.495437151000     0.131897954000    12.000000000000
         H            3.074472678000     0.911531008000    -1.877984459000     1.007825032230
         H            2.045123853000    -0.109210074000     2.150661072000     1.007825032230
         H            4.785403999000    -0.877695764000    -1.885515790000     1.007825032230
         H            3.735685255000    -1.868633627000     2.140834051000     1.007825032230
         H            5.124532464000    -2.280642897000     0.134249249000     1.007825032230
         C           -0.488934144000     0.794268058000     1.086043372000    12.000000000000
         H           -1.059332758000     0.920687850000     2.015752748000     1.007825032230
         H           -0.118878006000    -0.235784661000     1.045887261000     1.007825032230
         C            0.659709772000     1.772217814000     1.075007525000    12.000000000000
         H            0.270336376000     2.776505316000     0.905791046000     1.007825032230
         H            1.166412478000     1.765118076000     2.044908563000     1.007825032230

  Charge       = 0
  Multiplicity = 1
  Basis Set: JUN-CC-PVDZ
    Blend: JUN-CC-PVDZ
  Basis Set: (JUN-CC-PVDZ AUX)
    Blend: JUN-CC-PVDZ-JKFIT

    Orbital Energies [Eh]
    ---------------------

    Doubly Occupied:

       1A    -20.593699     2A    -20.592402     3A    -11.307528
       4A    -11.305953     5A    -11.301108     6A    -11.300041
       7A    -11.247406     8A    -11.245471     9A    -11.244774
      10A    -11.243639    11A    -11.239617    12A    -11.237423
      13A    -11.232652    14A    -11.232567    15A    -11.232092
      16A    -11.231461    17A     -1.434753    18A     -1.419244
      19A     -1.158303    20A     -1.154643    21A     -1.063663
      22A     -1.025378    23A     -1.023783    24A     -1.015527
      25A     -0.986141    26A     -0.894682    27A     -0.840817
      28A     -0.835348    29A     -0.821091    30A     -0.798177
      31A     -0.741815    32A     -0.721501    33A     -0.695967
      34A     -0.676505    35A     -0.672751    36A     -0.662444
      37A     -0.646198    38A     -0.634344    39A     -0.619165
      40A     -0.609596    41A     -0.592741    42A     -0.589341
      43A     -0.580583    44A     -0.555085    45A     -0.529979
      46A     -0.528530    47A     -0.520912    48A     -0.513675
      49A     -0.511169    50A     -0.488270    51A     -0.480285
      52A     -0.469386    53A     -0.466795    54A     -0.343948
      55A     -0.342308    56A     -0.315759    57A     -0.312318

  @DF-RHF Final Energy:  -688.07500762987422

   => Energetics <=

    Nuclear Repulsion Energy =            999.0366141271792912
    One-Electron Energy =               -2918.0617361093623003
    Two-Electron Energy =                1230.9501143523086739
    Total Energy =                       -688.0750076298743352
 Dipole X            :         -1.2494849            1.1801945           -0.0692905
 Dipole Y            :          3.3612556           -3.6834570           -0.3222014
 Dipole Z            :          1.9453211           -1.1471594            0.7981617
 Magnitude           :                                                    0.8635260
  Basis Set: (JUN-CC-PVDZ AUX)
    Blend: JUN-CC-PVDZ-JKFIT
  Basis Set: JUN-CC-PVDZ
    Blend: JUN-CC-PVDZ

    SAPT Results
  --------------------------------------------------------------------------------------------------------
    Electrostatics                  6.28593383 [mEh]       3.94448303 [kcal/mol]      16.50371701 [kJ/mol]
      Elst10,r                      6.28593383 [mEh]       3.94448303 [kcal/mol]      16.50371701 [kJ/mol]

    Exchange                        0.52987951 [mEh]       0.33250441 [kcal/mol]       1.39119847 [kJ/mol]
      Exch10                        0.52987951 [mEh]       0.33250441 [kcal/mol]       1.39119847 [kJ/mol]
      Exch10(S^2)                   0.52977097 [mEh]       0.33243630 [kcal/mol]       1.39091350 [kJ/mol]

    Induction                      -0.69094778 [mEh]      -0.43357628 [kcal/mol]      -1.81408315 [kJ/mol]
      Ind20,r                      -0.74478947 [mEh]      -0.46736245 [kcal/mol]      -1.95544449 [kJ/mol]
      Exch-Ind20,r                  0.14039634 [mEh]       0.08810003 [kcal/mol]       0.36861054 [kJ/mol]
      delta HF,r (2)               -0.08655464 [mEh]      -0.05431386 [kcal/mol]      -0.22724919 [kJ/mol]
      Induction (A<-B)             -0.30446363 [mEh]      -0.19105381 [kcal/mol]      -0.79936915 [kJ/mol]
      Induction (B<-A)             -0.38648415 [mEh]      -0.24252247 [kcal/mol]      -1.01471399 [kJ/mol]

    Dispersion                     -1.68696535 [mEh]      -1.05858674 [kcal/mol]      -4.42912691 [kJ/mol]
      Disp20                       -1.73389956 [mEh]      -1.08803840 [kcal/mol]      -4.55235267 [kJ/mol]
      Exch-Disp20                   0.04693421 [mEh]       0.02945166 [kcal/mol]       0.12322576 [kJ/mol]

  Total HF                          6.12486557 [mEh]       3.84341117 [kcal/mol]      16.08083234 [kJ/mol]
  Total SAPT0                       4.43790022 [mEh]       2.78482443 [kcal/mol]      11.65170542 [kJ/mol]

  --------------------------------------------------------------------------------------------------------

*** Psi4 exiting successfully. Buy a developer a beer!
