 Gaussian 09, Revision D.01,
 Gaussian 09:  EM64L-G09RevD.01 24-Apr-2013

 ----------------------------------------------------------------------
 #P b3lyp/gen opt(tight, ModRedundant) integral(Grid=ultrafine) Empiric
 alDispersion=GD3
 ----------------------------------------------------------------------

 pcseg-2 https://www.basissetexchange.org/basis/pcseg-2/format/gaussian
 94/?version=1&elements=1,6,7,8
 ----------------------------------------------------------------------
 Symbolic Z-matrix:
 Charge =  0 Multiplicity = 1

 SCF Done:  E(RB3LYP) =  -572.973403678     A.U. after   14 cycles
 SCF Done:  E(RB3LYP) =  -572.973416740     A.U. after   13 cycles
 SCF Done:  E(RB3LYP) =  -572.973627106     A.U. after   13 cycles
 SCF Done:  E(RB3LYP) =  -572.973645524     A.U. after   18 cycles
 SCF Done:  E(RB3LYP) =  -572.973646171     A.U. after    8 cycles
 SCF Done:  E(RB3LYP) =  -572.973646249     A.U. after    6 cycles
 SCF Done:  E(RB3LYP) =  -572.973646258     A.U. after    5 cycles
 SCF Done:  E(RB3LYP) =  -572.973646259     A.U. after    4 cycles
 Optimization completed.
    -- Stationary point found.
 SCF Done:  E(RB3LYP) =  -572.973979961     A.U. after   14 cycles
 SCF Done:  E(RB3LYP) =  -572.974218321     A.U. after   15 cycles
 Optimization completed.
 SCF Done:  E(RB3LYP) =  -572.974023720     A.U. after   15 cycles
 SCF Done:  E(RB3LYP) =  -572.974215161     A.U. after   15 cycles
 SCF Done:  E(RB3LYP) =  -572.974215927     A.U. after    8 cycles
 SCF Done:  E(RB3LYP) =  -572.974215939     A.U. after    5 cycles
 SCF Done:  E(RB3LYP) =  -572.974215942     A.U. after    4 cycles
    -- Stationary point found.
 SCF Done:  E(RB3LYP) =  -572.973402970     A.U. after   19 cycles
 SCF Done:  E(RB3LYP) =  -572.973644992     A.U. after   13 cycles
 SCF Done:  E(RB3LYP) =  -572.973645871     A.U. after    8 cycles
 SCF Done:  E(RB3LYP) =  -572.973645877     A.U. after    5 cycles
 SCF Done:  E(RB3LYP) =  -572.973645878     A.U. after    4 cycles
 Optimization completed.
    -- Stationary point found.

                         Standard orientation:
 ---------------------------------------------------------------------
 Center     Atomic      Atomic             Coordinates (Angstroms)
 Number     Number       Type             X           Y           Z
 ---------------------------------------------------------------------
      1          6           0        4.515047   -0.009543    0.143851
      2          6           0        3.816146   -1.207682    0.044151
      3          6           0        3.831125    1.198011    0.050837
      4          1           0        4.368616    2.133352    0.129302
      5          6           0        2.439372   -1.203981   -0.146520
      6          6           0        2.454994    1.212835   -0.142588
      7          1           0        1.887166   -2.129748   -0.229718
      8          1           0        1.915244    2.146093   -0.224334
      9          6           0        1.765672    0.008912   -0.227440
     10          7           0        0.356263    0.021001   -0.502699
     11          7           0       -0.356263   -0.021002    0.502700
     12          6           0       -3.831125   -1.198011   -0.050842
     13          6           0       -2.454993   -1.212835    0.142585
     14          6           0       -1.765672   -0.008912    0.227441
     15          6           0       -2.439373    1.203981    0.146525
     16          6           0       -3.816146    1.207683   -0.044148
     17          6           0       -4.515046    0.009544   -0.143854
     18          1           0       -4.368615   -2.133351   -0.129310
     19          1           0       -1.915244   -2.146093    0.224331
     20          1           0       -4.341851    2.150179   -0.116693
     21          1           0       -1.887167    2.129748    0.229726
     22          1           0        4.341850   -2.150179    0.116697
     23          1           0        5.586254   -0.016624    0.290544
     24          1           0       -5.586253    0.016626   -0.290549
 ---------------------------------------------------------------------

 The electronic state is 1-A.
 Alpha  occ. eigenvalues --  -14.38569 -14.38513 -10.21553 -10.21553 -10.18507
 Alpha  occ. eigenvalues --  -10.18507 -10.18506 -10.18506 -10.18446 -10.18446
 Alpha  occ. eigenvalues --  -10.18442 -10.18442 -10.18008 -10.18008  -1.06432
 Alpha  occ. eigenvalues --   -0.88384  -0.86557  -0.80603  -0.76049  -0.75994
 Alpha  occ. eigenvalues --   -0.75416  -0.68795  -0.62494  -0.62055  -0.61747
 Alpha  occ. eigenvalues --   -0.57837  -0.54591  -0.51268  -0.49237  -0.48638
 Alpha  occ. eigenvalues --   -0.47402  -0.46893  -0.45075  -0.44910  -0.43659
 Alpha  occ. eigenvalues --   -0.43545  -0.39307  -0.38729  -0.37826  -0.37059
 Alpha  occ. eigenvalues --   -0.37036  -0.36163  -0.34927  -0.28121  -0.26857
 Alpha  occ. eigenvalues --   -0.26821  -0.25768  -0.23553
 Alpha virt. eigenvalues --   -0.07114  -0.02291  -0.02079  -0.01790  -0.01778
 Alpha virt. eigenvalues --    0.01440   0.01955   0.02964   0.04158   0.04409
 Alpha virt. eigenvalues --    0.06047   0.06178   0.07636   0.10091   0.10108

 Mulliken charges:
               1
     1  C    0.003519
     2  C   -0.013303
     3  C   -0.012294
     4  H    0.019825
     5  C   -0.135844
     6  C   -0.132004
     7  H    0.006727
     8  H    0.007204
     9  C    0.393151
    10  N   -0.179805
    11  N   -0.179807
    12  C   -0.012294
    13  C   -0.132005
    14  C    0.393151
    15  C   -0.135843
    16  C   -0.013303
    17  C    0.003519
    18  H    0.019825
    19  H    0.007204
    20  H    0.019471
    21  H    0.006727
    22  H    0.019471
    23  H    0.023355
    24  H    0.023354
 Sum of Mulliken charges =   0.00000

 Dipole moment (field-independent basis, Debye):
    X=              0.0000    Y=              0.0000    Z=              0.0000  Tot=              0.0000
 Quadrupole moment (field-independent basis, Debye-Ang):
   XX=            -67.7522   YY=            -71.5423   ZZ=            -90.3235
   XY=              0.0211   XZ=              1.4985   YZ=              0.1515

 Normal termination of Gaussian 09 at Sun Jan 28 17:39:09 2024.
